   10   10    1    2
  0.1285713E+02  0.5706178E-09  0.5706178E-09  0.5706178E-09  0.5000000E-15
  1.000000000000000E-004
  CAR 
 unknown system                          
     94    120     56
 
  0.5000000E+00  0.0000000E+00  0.0000000E+00  0.8333333E-02
    1      -50.327038    -50.322244   1.000000   1.000000
    2      -50.272402    -50.267914   1.000000   1.000000
    3      -50.272372    -50.267880   1.000000   1.000000
    4      -45.720475    -45.725197   1.000000   1.000000
    5      -45.678312    -45.682812   1.000000   1.000000
    6      -45.678283    -45.682785   1.000000   1.000000
    7      -16.206654    -16.206754   1.000000   1.000000
    8      -16.205903    -16.205852   1.000000   1.000000
    9      -16.193442    -16.193517   1.000000   1.000000
   10      -16.192060    -16.191967   1.000000   1.000000
   11      -16.150248    -16.150191   1.000000   1.000000
   12      -16.149140    -16.149195   1.000000   1.000000
   13      -16.138786    -16.138722   1.000000   1.000000
   14      -16.137338    -16.137423   1.000000   1.000000
   15      -16.127165    -16.127344   1.000000   1.000000
   16      -16.125821    -16.125592   1.000000   1.000000
   17      -11.797738    -11.796425   1.000000   1.000000
   18      -11.750666    -11.751634   1.000000   1.000000
   19      -10.819792    -10.817736   1.000000   1.000000
   20      -10.725250    -10.726641   1.000000   1.000000
   21      -10.688213    -10.687473   1.000000   1.000000
   22      -10.634220    -10.635734   1.000000   1.000000
   23       -3.483377     -3.483385   1.000000   1.000000
   24       -3.473315     -3.473188   1.000000   1.000000
   25        0.339769      0.342501   1.000000   1.000000
   26        0.435311      0.438262   1.000000   1.000000
   27        0.570576      0.572480   1.000000   1.000000
   28        0.757676      0.760579   1.000000   1.000000
   29        1.090813      1.092500   1.000000   1.000000
   30        1.209027      1.210075   1.000000   1.000000
   31        1.541138      1.542120   1.000000   1.000000
   32        1.757419      1.758071   1.000000   1.000000
   33        2.125410      2.125627   1.000000   1.000000
   34        2.594908      2.595119   1.000000   1.000000
   35        2.764570      2.765328   1.000000   1.000000
   36        2.927961      2.927467   1.000000   1.000000
   37        3.178182      3.179444   1.000000   1.000000
   38        3.780966      3.780244   1.000000   1.000000
   39        4.085880      4.086770   1.000000   1.000000
   40        4.198842      4.198420   1.000000   1.000000
   41        4.290842      4.289838   1.000000   1.000000
   42        4.536913      4.537104   1.000000   1.000000
   43        4.612098      4.611774   1.000000   1.000000
   44        5.172935      5.172494   1.000000   1.000000
   45        5.301813      5.303080   1.000000   1.000000
   46        5.709820      5.710466   1.000000   1.000000
   47        5.893176      5.894004   1.000000   1.000000
   48        7.792779      7.789323   0.000000   0.000000
   49        7.890334      7.886809   0.000000   0.000000
   50        8.061927      8.058567   0.000000   0.000000
   51        8.850588      8.847488   0.000000   0.000000
   52        8.943120      8.940050   0.000000   0.000000
   53        9.798485      9.799379   0.000000   0.000000
   54        9.919152      9.917941   0.000000   0.000000
   55       11.079598     11.079549   0.000000   0.000000
   56       11.137798     11.137753   0.000000   0.000000
 
  0.5000000E+00  0.2173913E-01  0.0000000E+00  0.8333333E-02
    1      -50.327038    -50.322244   1.000000   1.000000
    2      -50.272400    -50.267911   1.000000   1.000000
    3      -50.272369    -50.267879   1.000000   1.000000
    4      -45.720476    -45.725197   1.000000   1.000000
    5      -45.678308    -45.682810   1.000000   1.000000
    6      -45.678282    -45.682781   1.000000   1.000000
    7      -16.207825    -16.207408   1.000000   1.000000
    8      -16.205272    -16.205922   1.000000   1.000000
    9      -16.194050    -16.193349   1.000000   1.000000
   10      -16.190921    -16.191421   1.000000   1.000000
   11      -16.150322    -16.150177   1.000000   1.000000
   12      -16.149129    -16.149288   1.000000   1.000000
   13      -16.138766    -16.138740   1.000000   1.000000
   14      -16.137378    -16.137386   1.000000   1.000000
   15      -16.127230    -16.127426   1.000000   1.000000
   16      -16.125597    -16.125371   1.000000   1.000000
   17      -11.803296    -11.802029   1.000000   1.000000
   18      -11.743462    -11.744402   1.000000   1.000000
   19      -10.820815    -10.819056   1.000000   1.000000
   20      -10.728575    -10.726872   1.000000   1.000000
   21      -10.686761    -10.690405   1.000000   1.000000
   22      -10.633289    -10.633193   1.000000   1.000000
   23       -3.494292     -3.494152   1.000000   1.000000
   24       -3.462767     -3.462798   1.000000   1.000000
   25        0.334318      0.337631   1.000000   1.000000
   26        0.440707      0.441075   1.000000   1.000000
   27        0.570979      0.571786   1.000000   1.000000
   28        0.759209      0.762165   1.000000   1.000000
   29        1.090574      1.091752   1.000000   1.000000
   30        1.206352      1.213784   1.000000   1.000000
   31        1.543723      1.543032   1.000000   1.000000
   32        1.749559      1.760165   1.000000   1.000000
   33        2.138813      2.127426   1.000000   1.000000
   34        2.595349      2.595826   1.000000   1.000000
   35        2.766507      2.759155   1.000000   1.000000
   36        2.928732      2.932307   1.000000   1.000000
   37        3.177719      3.182025   1.000000   1.000000
   38        3.778428      3.775691   1.000000   1.000000
   39        4.081686      4.087622   1.000000   1.000000
   40        4.200656      4.194907   1.000000   1.000000
   41        4.289619      4.290760   1.000000   1.000000
   42        4.535919      4.539096   1.000000   1.000000
   43        4.612225      4.612157   1.000000   1.000000
   44        5.174985      5.166850   1.000000   1.000000
   45        5.297741      5.308737   1.000000   1.000000
   46        5.708659      5.708046   1.000000   1.000000
   47        5.893850      5.891820   1.000000   1.000000
   48        7.794158      7.790036   0.000000   0.000000
   49        7.890687      7.887004   0.000000   0.000000
   50        8.061490      8.058353   0.000000   0.000000
   51        8.850321      8.844257   0.000000   0.000000
   52        8.942340      8.943940   0.000000   0.000000
   53        9.798468      9.800846   0.000000   0.000000
   54        9.920659      9.917631   0.000000   0.000000
   55       11.056626     11.053294   0.000000   0.000000
   56       11.158571     11.161434   0.000000   0.000000
 
  0.5000000E+00  0.4347826E-01  0.0000000E+00  0.8333333E-02
    1      -50.327038    -50.322244   1.000000   1.000000
    2      -50.272398    -50.267908   1.000000   1.000000
    3      -50.272366    -50.267877   1.000000   1.000000
    4      -45.720475    -45.725196   1.000000   1.000000
    5      -45.678304    -45.682808   1.000000   1.000000
    6      -45.678280    -45.682778   1.000000   1.000000
    7      -16.209804    -16.209201   1.000000   1.000000
    8      -16.204839    -16.206028   1.000000   1.000000
    9      -16.194513    -16.192995   1.000000   1.000000
   10      -16.188967    -16.189935   1.000000   1.000000
   11      -16.150549    -16.150146   1.000000   1.000000
   12      -16.149104    -16.149571   1.000000   1.000000
   13      -16.138718    -16.138798   1.000000   1.000000
   14      -16.137497    -16.137295   1.000000   1.000000
   15      -16.127359    -16.127601   1.000000   1.000000
   16      -16.125024    -16.124804   1.000000   1.000000
   17      -11.814686    -11.813393   1.000000   1.000000
   18      -11.727261    -11.728276   1.000000   1.000000
   19      -10.823957    -10.822947   1.000000   1.000000
   20      -10.736909    -10.727986   1.000000   1.000000
   21      -10.684086    -10.697580   1.000000   1.000000
   22      -10.630464    -10.626930   1.000000   1.000000
   23       -3.509528     -3.509279   1.000000   1.000000
   24       -3.448642     -3.448814   1.000000   1.000000
   25        0.320561      0.324675   1.000000   1.000000
   26        0.454184      0.447895   1.000000   1.000000
   27        0.572291      0.569636   1.000000   1.000000
   28        0.763704      0.767438   1.000000   1.000000
   29        1.089835      1.089566   1.000000   1.000000
   30        1.198811      1.223981   1.000000   1.000000
   31        1.550302      1.546236   1.000000   1.000000
   32        1.730866      1.766119   1.000000   1.000000
   33        2.174357      2.132947   1.000000   1.000000
   34        2.596837      2.597757   1.000000   1.000000
   35        2.772567      2.743241   1.000000   1.000000
   36        2.930993      2.944017   1.000000   1.000000
   37        3.176394      3.190169   1.000000   1.000000
   38        3.771145      3.762795   1.000000   1.000000
   39        4.069916      4.088952   1.000000   1.000000
   40        4.204280      4.185373   1.000000   1.000000
   41        4.286569      4.293453   1.000000   1.000000
   42        4.533324      4.544552   1.000000   1.000000
   43        4.612785      4.613333   1.000000   1.000000
   44        5.180563      5.152481   1.000000   1.000000
   45        5.285872      5.323159   1.000000   1.000000
   46        5.705178      5.700790   1.000000   1.000000
   47        5.895728      5.885382   1.000000   1.000000
   48        7.798232      7.792123   0.000000   0.000000
   49        7.891725      7.887607   0.000000   0.000000
   50        8.060190      8.057687   0.000000   0.000000
   51        8.848818      8.835618   0.000000   0.000000
   52        8.940807      8.954471   0.000000   0.000000
   53        9.797563      9.805089   0.000000   0.000000
   54        9.925743      9.916617   0.000000   0.000000
   55       11.017368     11.009693   0.000000   0.000000
   56       11.191915     11.197168   0.000000   0.000000
 
  0.5000000E+00  0.6521739E-01  0.0000000E+00  0.8333333E-02
    1      -50.327039    -50.322245   1.000000   1.000000
    2      -50.272399    -50.267907   1.000000   1.000000
    3      -50.272365    -50.267877   1.000000   1.000000
    4      -45.720476    -45.725197   1.000000   1.000000
    5      -45.678303    -45.682808   1.000000   1.000000
    6      -45.678280    -45.682777   1.000000   1.000000
    7      -16.212223    -16.211674   1.000000   1.000000
    8      -16.204751    -16.206152   1.000000   1.000000
    9      -16.194480    -16.192524   1.000000   1.000000
   10      -16.186788    -16.187935   1.000000   1.000000
   11      -16.150915    -16.150106   1.000000   1.000000
   12      -16.149066    -16.150008   1.000000   1.000000
   13      -16.138658    -16.138887   1.000000   1.000000
   14      -16.137674    -16.137178   1.000000   1.000000
   15      -16.127478    -16.127775   1.000000   1.000000
   16      -16.124204    -16.123999   1.000000   1.000000
   17      -11.826891    -11.825466   1.000000   1.000000
   18      -11.707145    -11.708373   1.000000   1.000000
   19      -10.829246    -10.829265   1.000000   1.000000
   20      -10.747946    -10.731275   1.000000   1.000000
   21      -10.682423    -10.705758   1.000000   1.000000
   22      -10.625804    -10.619047   1.000000   1.000000
   23       -3.525689     -3.525346   1.000000   1.000000
   24       -3.434328     -3.434643   1.000000   1.000000
   25        0.302375      0.306519   1.000000   1.000000
   26        0.471493      0.455919   1.000000   1.000000
   27        0.574845      0.566166   1.000000   1.000000
   28        0.770869      0.777417   1.000000   1.000000
   29        1.088507      1.086064   1.000000   1.000000
   30        1.187675      1.238211   1.000000   1.000000
   31        1.557244      1.553028   1.000000   1.000000
   32        1.711861      1.775039   1.000000   1.000000
   33        2.222398      2.142524   1.000000   1.000000
   34        2.600048      2.600224   1.000000   1.000000
   35        2.783415      2.722602   1.000000   1.000000
   36        2.934603      2.957316   1.000000   1.000000
   37        3.174391      3.204827   1.000000   1.000000
   38        3.760019      3.743446   1.000000   1.000000
   39        4.052235      4.087573   1.000000   1.000000
   40        4.204723      4.172343   1.000000   1.000000
   41        4.284125      4.297952   1.000000   1.000000
   42        4.530257      4.552075   1.000000   1.000000
   43        4.614045      4.615408   1.000000   1.000000
   44        5.187888      5.133826   1.000000   1.000000
   45        5.267443      5.341960   1.000000   1.000000
   46        5.699405      5.688770   1.000000   1.000000
   47        5.898400      5.875025   1.000000   1.000000
   48        7.804795      7.795447   0.000000   0.000000
   49        7.893427      7.888690   0.000000   0.000000
   50        8.058093      8.056524   0.000000   0.000000
   51        8.844142      8.823347   0.000000   0.000000
   52        8.940779      8.969555   0.000000   0.000000
   53        9.793695      9.811547   0.000000   0.000000
   54        9.935722      9.914814   0.000000   0.000000
   55       10.976761     10.965252   0.000000   0.000000
   56       11.221715     11.229191   0.000000   0.000000
 
  0.5000000E+00  0.8695652E-01  0.0000000E+00  0.8333333E-02
    1      -50.327040    -50.322246   1.000000   1.000000
    2      -50.272400    -50.267907   1.000000   1.000000
    3      -50.272365    -50.267878   1.000000   1.000000
    4      -45.720477    -45.725198   1.000000   1.000000
    5      -45.678304    -45.682809   1.000000   1.000000
    6      -45.678281    -45.682777   1.000000   1.000000
    7      -16.214927    -16.214483   1.000000   1.000000
    8      -16.204878    -16.206290   1.000000   1.000000
    9      -16.194048    -16.191927   1.000000   1.000000
   10      -16.184550    -16.185755   1.000000   1.000000
   11      -16.151396    -16.150603   1.000000   1.000000
   12      -16.149008    -16.150012   1.000000   1.000000
   13      -16.138595    -16.138996   1.000000   1.000000
   14      -16.137881    -16.137051   1.000000   1.000000
   15      -16.127562    -16.127910   1.000000   1.000000
   16      -16.123188    -16.123007   1.000000   1.000000
   17      -11.838276    -11.836677   1.000000   1.000000
   18      -11.684789    -11.686305   1.000000   1.000000
   19      -10.836722    -10.837705   1.000000   1.000000
   20      -10.760301    -10.738807   1.000000   1.000000
   21      -10.682565    -10.711760   1.000000   1.000000
   22      -10.619625    -10.610732   1.000000   1.000000
   23       -3.542658     -3.542233   1.000000   1.000000
   24       -3.419896     -3.420360   1.000000   1.000000
   25        0.281924      0.285202   1.000000   1.000000
   26        0.489806      0.463169   1.000000   1.000000
   27        0.579227      0.562268   1.000000   1.000000
   28        0.780300      0.792697   1.000000   1.000000
   29        1.086353      1.081359   1.000000   1.000000
   30        1.174642      1.253281   1.000000   1.000000
   31        1.559051      1.565173   1.000000   1.000000
   32        1.703199      1.785721   1.000000   1.000000
   33        2.273376      2.156628   1.000000   1.000000
   34        2.606594      2.601618   1.000000   1.000000
   35        2.799906      2.701977   1.000000   1.000000
   36        2.939400      2.968254   1.000000   1.000000
   37        3.172026      3.226828   1.000000   1.000000
   38        3.746281      3.719885   1.000000   1.000000
   39        4.030207      4.079712   1.000000   1.000000
   40        4.195805      4.158795   1.000000   1.000000
   41        4.286157      4.304516   1.000000   1.000000
   42        4.528276      4.559763   1.000000   1.000000
   43        4.615936      4.618556   1.000000   1.000000
   44        5.192794      5.114096   1.000000   1.000000
   45        5.246013      5.361939   1.000000   1.000000
   46        5.691437      5.672220   1.000000   1.000000
   47        5.901256      5.861242   1.000000   1.000000
   48        7.813553      7.799785   0.000000   0.000000
   49        7.895755      7.890385   0.000000   0.000000
   50        8.055320      8.054809   0.000000   0.000000
   51        8.834077      8.808565   0.000000   0.000000
   52        8.944907      8.987667   0.000000   0.000000
   53        9.784815      9.818780   0.000000   0.000000
   54        9.951547      9.912684   0.000000   0.000000
   55       10.938345     10.924011   0.000000   0.000000
   56       11.245758     11.254655   0.000000   0.000000
 
  0.5000000E+00  0.1086957E+00  0.0000000E+00  0.8333333E-02
    1      -50.327040    -50.322246   1.000000   1.000000
    2      -50.272400    -50.267909   1.000000   1.000000
    3      -50.272367    -50.267878   1.000000   1.000000
    4      -45.720477    -45.725199   1.000000   1.000000
    5      -45.678306    -45.682810   1.000000   1.000000
    6      -45.678282    -45.682780   1.000000   1.000000
    7      -16.217807    -16.217459   1.000000   1.000000
    8      -16.205113    -16.206435   1.000000   1.000000
    9      -16.193341    -16.191211   1.000000   1.000000
   10      -16.182359    -16.183575   1.000000   1.000000
   11      -16.151959    -16.151269   1.000000   1.000000
   12      -16.148935    -16.149915   1.000000   1.000000
   13      -16.138568    -16.139117   1.000000   1.000000
   14      -16.138061    -16.136932   1.000000   1.000000
   15      -16.127621    -16.128005   1.000000   1.000000
   16      -16.122009    -16.121856   1.000000   1.000000
   17      -11.848304    -11.846528   1.000000   1.000000
   18      -11.660828    -11.662668   1.000000   1.000000
   19      -10.846422    -10.848034   1.000000   1.000000
   20      -10.773307    -10.750707   1.000000   1.000000
   21      -10.684439    -10.715000   1.000000   1.000000
   22      -10.612504    -10.602549   1.000000   1.000000
   23       -3.560457     -3.559960   1.000000   1.000000
   24       -3.405291     -3.405906   1.000000   1.000000
   25        0.260170      0.261862   1.000000   1.000000
   26        0.507168      0.468572   1.000000   1.000000
   27        0.586240      0.559562   1.000000   1.000000
   28        0.791553      0.812948   1.000000   1.000000
   29        1.082879      1.075542   1.000000   1.000000
   30        1.161582      1.266189   1.000000   1.000000
   31        1.552854      1.584258   1.000000   1.000000
   32        1.710617      1.796947   1.000000   1.000000
   33        2.318628      2.175694   1.000000   1.000000
   34        2.619190      2.598728   1.000000   1.000000
   35        2.822734      2.686289   1.000000   1.000000
   36        2.945369      2.975110   1.000000   1.000000
   37        3.169753      3.256123   1.000000   1.000000
   38        3.731266      3.694199   1.000000   1.000000
   39        4.005112      4.063320   1.000000   1.000000
   40        4.175222      4.146491   1.000000   1.000000
   41        4.293702      4.313182   1.000000   1.000000
   42        4.528742      4.565778   1.000000   1.000000
   43        4.617975      4.622822   1.000000   1.000000
   44        5.183596      5.095325   1.000000   1.000000
   45        5.232857      5.380901   1.000000   1.000000
   46        5.681446      5.651724   1.000000   1.000000
   47        5.903556      5.844602   1.000000   1.000000
   48        7.824096      7.804816   0.000000   0.000000
   49        7.898654      7.892884   0.000000   0.000000
   50        8.052033      8.052476   0.000000   0.000000
   51        8.817704      8.791681   0.000000   0.000000
   52        8.954544      9.007875   0.000000   0.000000
   53        9.769908      9.823458   0.000000   0.000000
   54        9.972954      9.912379   0.000000   0.000000
   55       10.904114     10.888365   0.000000   0.000000
   56       11.263219     11.271939   0.000000   0.000000
 
  0.5000000E+00  0.1304348E+00  0.0000000E+00  0.8333333E-02
    1      -50.327040    -50.322246   1.000000   1.000000
    2      -50.272400    -50.267907   1.000000   1.000000
    3      -50.272365    -50.267878   1.000000   1.000000
    4      -45.720477    -45.725198   1.000000   1.000000
    5      -45.678304    -45.682809   1.000000   1.000000
    6      -45.678282    -45.682778   1.000000   1.000000
    7      -16.220768    -16.220497   1.000000   1.000000
    8      -16.205381    -16.206573   1.000000   1.000000
    9      -16.192452    -16.190391   1.000000   1.000000
   10      -16.180281    -16.181492   1.000000   1.000000
   11      -16.152577    -16.151987   1.000000   1.000000
   12      -16.148843    -16.149794   1.000000   1.000000
   13      -16.138648    -16.139241   1.000000   1.000000
   14      -16.138135    -16.136835   1.000000   1.000000
   15      -16.127642    -16.128044   1.000000   1.000000
   16      -16.120691    -16.120567   1.000000   1.000000
   17      -11.856728    -11.854803   1.000000   1.000000
   18      -11.635611    -11.637786   1.000000   1.000000
   19      -10.858328    -10.860018   1.000000   1.000000
   20      -10.786537    -10.765167   1.000000   1.000000
   21      -10.687645    -10.716953   1.000000   1.000000
   22      -10.604959    -10.594736   1.000000   1.000000
   23       -3.579084     -3.578528   1.000000   1.000000
   24       -3.390436     -3.391198   1.000000   1.000000
   25        0.237562      0.237164   1.000000   1.000000
   26        0.522071      0.471884   1.000000   1.000000
   27        0.596625      0.559616   1.000000   1.000000
   28        0.804259      0.837124   1.000000   1.000000
   29        1.077288      1.068714   1.000000   1.000000
   30        1.150391      1.274989   1.000000   1.000000
   31        1.542496      1.610954   1.000000   1.000000
   32        1.731781      1.807805   1.000000   1.000000
   33        2.350997      2.199928   1.000000   1.000000
   34        2.640416      2.587913   1.000000   1.000000
   35        2.851719      2.680064   1.000000   1.000000
   36        2.953135      2.977969   1.000000   1.000000
   37        3.168158      3.291548   1.000000   1.000000
   38        3.716271      3.668218   1.000000   1.000000
   39        3.978073      4.039342   1.000000   1.000000
   40        4.145367      4.135086   1.000000   1.000000
   41        4.304270      4.323336   1.000000   1.000000
   42        4.532355      4.569033   1.000000   1.000000
   43        4.619431      4.627721   1.000000   1.000000
   44        5.154250      5.078919   1.000000   1.000000
   45        5.233988      5.396801   1.000000   1.000000
   46        5.669664      5.628561   1.000000   1.000000
   47        5.904518      5.825646   1.000000   1.000000
   48        7.835944      7.810153   0.000000   0.000000
   49        7.902074      7.896428   0.000000   0.000000
   50        8.048446      8.049484   0.000000   0.000000
   51        8.795628      8.772707   0.000000   0.000000
   52        8.969432      9.029569   0.000000   0.000000
   53        9.748996      9.820076   0.000000   0.000000
   54        9.998688      9.918292   0.000000   0.000000
   55       10.875296     10.859973   0.000000   0.000000
   56       11.273264     11.280524   0.000000   0.000000
 
  0.5000000E+00  0.1521739E+00  0.0000000E+00  0.8333333E-02
    1      -50.327041    -50.322247   1.000000   1.000000
    2      -50.272400    -50.267906   1.000000   1.000000
    3      -50.272364    -50.267878   1.000000   1.000000
    4      -45.720478    -45.725199   1.000000   1.000000
    5      -45.678302    -45.682809   1.000000   1.000000
    6      -45.678282    -45.682776   1.000000   1.000000
    7      -16.223756    -16.223544   1.000000   1.000000
    8      -16.205651    -16.206700   1.000000   1.000000
    9      -16.191439    -16.189485   1.000000   1.000000
   10      -16.178369    -16.179564   1.000000   1.000000
   11      -16.153218    -16.152720   1.000000   1.000000
   12      -16.148738    -16.149655   1.000000   1.000000
   13      -16.138843    -16.139373   1.000000   1.000000
   14      -16.138108    -16.136777   1.000000   1.000000
   15      -16.127626    -16.128028   1.000000   1.000000
   16      -16.119278    -16.119181   1.000000   1.000000
   17      -11.863527    -11.861478   1.000000   1.000000
   18      -11.609381    -11.611894   1.000000   1.000000
   19      -10.872372    -10.873558   1.000000   1.000000
   20      -10.799828    -10.780930   1.000000   1.000000
   21      -10.691855    -10.718701   1.000000   1.000000
   22      -10.597451    -10.587481   1.000000   1.000000
   23       -3.598505     -3.597905   1.000000   1.000000
   24       -3.375299     -3.376195   1.000000   1.000000
   25        0.214338      0.211557   1.000000   1.000000
   26        0.533791      0.473802   1.000000   1.000000
   27        0.610366      0.563057   1.000000   1.000000
   28        0.818207      0.863826   1.000000   1.000000
   29        1.068801      1.061028   1.000000   1.000000
   30        1.142556      1.279138   1.000000   1.000000
   31        1.533796      1.644558   1.000000   1.000000
   32        1.761657      1.818000   1.000000   1.000000
   33        2.367403      2.229118   1.000000   1.000000
   34        2.669868      2.569486   1.000000   1.000000
   35        2.883772      2.683456   1.000000   1.000000
   36        2.965497      2.977882   1.000000   1.000000
   37        3.167964      3.331084   1.000000   1.000000
   38        3.702508      3.643647   1.000000   1.000000
   39        3.950156      4.009932   1.000000   1.000000
   40        4.109505      4.123763   1.000000   1.000000
   41        4.315431      4.333740   1.000000   1.000000
   42        4.539121      4.569497   1.000000   1.000000
   43        4.619515      4.632160   1.000000   1.000000
   44        5.115632      5.065882   1.000000   1.000000
   45        5.238955      5.406957   1.000000   1.000000
   46        5.656338      5.605175   1.000000   1.000000
   47        5.903397      5.804835   1.000000   1.000000
   48        7.848507      7.815359   0.000000   0.000000
   49        7.905969      7.901263   0.000000   0.000000
   50        8.044817      8.045811   0.000000   0.000000
   51        8.768950      8.751503   0.000000   0.000000
   52        8.988632      9.052251   0.000000   0.000000
   53        9.722649      9.804833   0.000000   0.000000
   54       10.027153      9.933412   0.000000   0.000000
   55       10.852529     10.839524   0.000000   0.000000
   56       11.276821     11.282728   0.000000   0.000000
 
  0.5000000E+00  0.1739130E+00  0.0000000E+00  0.8333333E-02
    1      -50.327040    -50.322246   1.000000   1.000000
    2      -50.272398    -50.267905   1.000000   1.000000
    3      -50.272363    -50.267877   1.000000   1.000000
    4      -45.720477    -45.725198   1.000000   1.000000
    5      -45.678301    -45.682808   1.000000   1.000000
    6      -45.678280    -45.682775   1.000000   1.000000
    7      -16.226724    -16.226556   1.000000   1.000000
    8      -16.205897    -16.206809   1.000000   1.000000
    9      -16.190343    -16.188510   1.000000   1.000000
   10      -16.176653    -16.177826   1.000000   1.000000
   11      -16.153850    -16.153437   1.000000   1.000000
   12      -16.148619    -16.149497   1.000000   1.000000
   13      -16.139077    -16.139510   1.000000   1.000000
   14      -16.138060    -16.136769   1.000000   1.000000
   15      -16.127570    -16.127954   1.000000   1.000000
   16      -16.117783    -16.117708   1.000000   1.000000
   17      -11.868658    -11.866511   1.000000   1.000000
   18      -11.582355    -11.585211   1.000000   1.000000
   19      -10.888327    -10.888512   1.000000   1.000000
   20      -10.813049    -10.797287   1.000000   1.000000
   21      -10.696758    -10.720642   1.000000   1.000000
   22      -10.590221    -10.580812   1.000000   1.000000
   23       -3.618621     -3.617992   1.000000   1.000000
   24       -3.359884     -3.360897   1.000000   1.000000
   25        0.190684      0.185462   1.000000   1.000000
   26        0.542684      0.475650   1.000000   1.000000
   27        0.626349      0.569533   1.000000   1.000000
   28        0.833384      0.891491   1.000000   1.000000
   29        1.057421      1.052778   1.000000   1.000000
   30        1.138484      1.279216   1.000000   1.000000
   31        1.530589      1.682983   1.000000   1.000000
   32        1.796753      1.828243   1.000000   1.000000
   33        2.369845      2.262547   1.000000   1.000000
   34        2.703512      2.546917   1.000000   1.000000
   35        2.909819      2.693297   1.000000   1.000000
   36        2.989699      2.976178   1.000000   1.000000
   37        3.170095      3.372042   1.000000   1.000000
   38        3.691065      3.622385   1.000000   1.000000
   39        3.922390      3.976733   1.000000   1.000000
   40        4.070459      4.112568   1.000000   1.000000
   41        4.325867      4.342835   1.000000   1.000000
   42        4.548538      4.567813   1.000000   1.000000
   43        4.617528      4.635016   1.000000   1.000000
   44        5.073091      5.056817   1.000000   1.000000
   45        5.243314      5.407602   1.000000   1.000000
   46        5.641698      5.585503   1.000000   1.000000
   47        5.899549      5.782531   1.000000   1.000000
   48        7.861056      7.820046   0.000000   0.000000
   49        7.910373      7.907557   0.000000   0.000000
   50        8.041452      8.041501   0.000000   0.000000
   51        8.738595      8.727925   0.000000   0.000000
   52        9.011222      9.075513   0.000000   0.000000
   53        9.691716      9.778677   0.000000   0.000000
   54       10.056888      9.956550   0.000000   0.000000
   55       10.835529     10.826409   0.000000   0.000000
   56       11.274829     11.276537   0.000000   0.000000
 