   10   10    1    2
  0.1284472E+02  0.5704029E-09  0.5704029E-09  0.5704029E-09  0.5000000E-15
  1.000000000000000E-004
  CAR 
 unknown system                          
     94    120     56
 
  0.5000000E+00  0.0000000E+00  0.0000000E+00  0.8333333E-02
    1      -50.303797    -50.298668   1.000000   1.000000
    2      -50.240984    -50.236155   1.000000   1.000000
    3      -50.240965    -50.236128   1.000000   1.000000
    4      -45.702499    -45.707551   1.000000   1.000000
    5      -45.653444    -45.658286   1.000000   1.000000
    6      -45.653425    -45.658272   1.000000   1.000000
    7      -16.182184    -16.182288   1.000000   1.000000
    8      -16.181234    -16.181191   1.000000   1.000000
    9      -16.168695    -16.168751   1.000000   1.000000
   10      -16.167132    -16.167050   1.000000   1.000000
   11      -16.121871    -16.121860   1.000000   1.000000
   12      -16.120744    -16.120757   1.000000   1.000000
   13      -16.110320    -16.110314   1.000000   1.000000
   14      -16.108969    -16.108994   1.000000   1.000000
   15      -16.098474    -16.098690   1.000000   1.000000
   16      -16.096992    -16.096717   1.000000   1.000000
   17      -11.807452    -11.806293   1.000000   1.000000
   18      -11.752359    -11.753168   1.000000   1.000000
   19      -10.830069    -10.828232   1.000000   1.000000
   20      -10.722842    -10.723881   1.000000   1.000000
   21      -10.691403    -10.690926   1.000000   1.000000
   22      -10.629439    -10.630811   1.000000   1.000000
   23       -3.468648     -3.468600   1.000000   1.000000
   24       -3.457696     -3.457608   1.000000   1.000000
   25        0.341432      0.344210   1.000000   1.000000
   26        0.442126      0.445160   1.000000   1.000000
   27        0.584143      0.586233   1.000000   1.000000
   28        0.768677      0.771806   1.000000   1.000000
   29        1.097653      1.099317   1.000000   1.000000
   30        1.217922      1.219266   1.000000   1.000000
   31        1.565623      1.566825   1.000000   1.000000
   32        1.776863      1.777451   1.000000   1.000000
   33        2.139289      2.139468   1.000000   1.000000
   34        2.586932      2.587223   1.000000   1.000000
   35        2.780855      2.781608   1.000000   1.000000
   36        2.946039      2.945573   1.000000   1.000000
   37        3.188671      3.189959   1.000000   1.000000
   38        3.769421      3.768795   1.000000   1.000000
   39        4.075382      4.076153   1.000000   1.000000
   40        4.220316      4.219937   1.000000   1.000000
   41        4.290793      4.289866   1.000000   1.000000
   42        4.547573      4.547760   1.000000   1.000000
   43        4.608566      4.608277   1.000000   1.000000
   44        5.201324      5.200817   1.000000   1.000000
   45        5.305060      5.306281   1.000000   1.000000
   46        5.682510      5.683260   1.000000   1.000000
   47        5.892489      5.893329   1.000000   1.000000
   48        7.828429      7.824751   0.000000   0.000000
   49        7.909165      7.905425   0.000000   0.000000
   50        8.096333      8.092774   0.000000   0.000000
   51        8.858714      8.855388   0.000000   0.000000
   52        8.957349      8.954028   0.000000   0.000000
   53        9.853799      9.854660   0.000000   0.000000
   54        9.968999      9.967805   0.000000   0.000000
   55       11.118916     11.118721   0.000000   0.000000
   56       11.176489     11.176472   0.000000   0.000000
 
  0.5000000E+00  0.2173913E-01  0.0000000E+00  0.8333333E-02
    1      -50.303797    -50.298668   1.000000   1.000000
    2      -50.240982    -50.236153   1.000000   1.000000
    3      -50.240964    -50.236127   1.000000   1.000000
    4      -45.702499    -45.707551   1.000000   1.000000
    5      -45.653443    -45.658284   1.000000   1.000000
    6      -45.653424    -45.658272   1.000000   1.000000
    7      -16.183381    -16.182885   1.000000   1.000000
    8      -16.180612    -16.181395   1.000000   1.000000
    9      -16.169337    -16.168510   1.000000   1.000000
   10      -16.165923    -16.166500   1.000000   1.000000
   11      -16.121955    -16.121850   1.000000   1.000000
   12      -16.120736    -16.120862   1.000000   1.000000
   13      -16.110301    -16.110328   1.000000   1.000000
   14      -16.109002    -16.108955   1.000000   1.000000
   15      -16.098507    -16.098743   1.000000   1.000000
   16      -16.096812    -16.096538   1.000000   1.000000
   17      -11.812264    -11.811091   1.000000   1.000000
   18      -11.745936    -11.746778   1.000000   1.000000
   19      -10.831111    -10.829488   1.000000   1.000000
   20      -10.726810    -10.724193   1.000000   1.000000
   21      -10.689166    -10.693657   1.000000   1.000000
   22      -10.628683    -10.628506   1.000000   1.000000
   23       -3.479411     -3.479258   1.000000   1.000000
   24       -3.447280     -3.447304   1.000000   1.000000
   25        0.336159      0.339413   1.000000   1.000000
   26        0.447326      0.447785   1.000000   1.000000
   27        0.584717      0.585880   1.000000   1.000000
   28        0.770310      0.773482   1.000000   1.000000
   29        1.097274      1.098292   1.000000   1.000000
   30        1.215558      1.223090   1.000000   1.000000
   31        1.568048      1.567495   1.000000   1.000000
   32        1.768352      1.779685   1.000000   1.000000
   33        2.152994      2.141273   1.000000   1.000000
   34        2.587526      2.588151   1.000000   1.000000
   35        2.782500      2.774614   1.000000   1.000000
   36        2.946665      2.950810   1.000000   1.000000
   37        3.188289      3.192200   1.000000   1.000000
   38        3.767165      3.764625   1.000000   1.000000
   39        4.071791      4.077653   1.000000   1.000000
   40        4.221029      4.213977   1.000000   1.000000
   41        4.289785      4.292621   1.000000   1.000000
   42        4.545758      4.549527   1.000000   1.000000
   43        4.609875      4.608657   1.000000   1.000000
   44        5.202993      5.194244   1.000000   1.000000
   45        5.300806      5.312880   1.000000   1.000000
   46        5.682195      5.681230   1.000000   1.000000
   47        5.892985      5.891257   1.000000   1.000000
   48        7.829647      7.825335   0.000000   0.000000
   49        7.909545      7.905671   0.000000   0.000000
   50        8.095845      8.092416   0.000000   0.000000
   51        8.858745      8.852102   0.000000   0.000000
   52        8.956365      8.957972   0.000000   0.000000
   53        9.853426      9.856035   0.000000   0.000000
   54        9.970494      9.967301   0.000000   0.000000
   55       11.095334     11.091772   0.000000   0.000000
   56       11.198073     11.200998   0.000000   0.000000
 
  0.5000000E+00  0.4347826E-01  0.0000000E+00  0.8333333E-02
    1      -50.303796    -50.298668   1.000000   1.000000
    2      -50.240981    -50.236150   1.000000   1.000000
    3      -50.240961    -50.236126   1.000000   1.000000
    4      -45.702499    -45.707550   1.000000   1.000000
    5      -45.653438    -45.658283   1.000000   1.000000
    6      -45.653423    -45.658267   1.000000   1.000000
    7      -16.185459    -16.184731   1.000000   1.000000
    8      -16.180171    -16.181607   1.000000   1.000000
    9      -16.169830    -16.168066   1.000000   1.000000
   10      -16.163827    -16.164925   1.000000   1.000000
   11      -16.122201    -16.121818   1.000000   1.000000
   12      -16.120712    -16.121167   1.000000   1.000000
   13      -16.110262    -16.110375   1.000000   1.000000
   14      -16.109103    -16.108861   1.000000   1.000000
   15      -16.098575    -16.098858   1.000000   1.000000
   16      -16.096314    -16.096044   1.000000   1.000000
   17      -11.822694    -11.821426   1.000000   1.000000
   18      -11.730669    -11.731661   1.000000   1.000000
   19      -10.834254    -10.833202   1.000000   1.000000
   20      -10.736166    -10.725569   1.000000   1.000000
   21      -10.685052    -10.700401   1.000000   1.000000
   22      -10.626328    -10.622636   1.000000   1.000000
   23       -3.494707     -3.494456   1.000000   1.000000
   24       -3.433027     -3.433172   1.000000   1.000000
   25        0.322712      0.326542   1.000000   1.000000
   26        0.460449      0.454259   1.000000   1.000000
   27        0.586527      0.584615   1.000000   1.000000
   28        0.775110      0.779013   1.000000   1.000000
   29        1.096103      1.095421   1.000000   1.000000
   30        1.208900      1.233591   1.000000   1.000000
   31        1.574169      1.569980   1.000000   1.000000
   32        1.748082      1.786002   1.000000   1.000000
   33        2.189081      2.146823   1.000000   1.000000
   34        2.589568      2.590816   1.000000   1.000000
   35        2.787630      2.756515   1.000000   1.000000
   36        2.948495      2.963336   1.000000   1.000000
   37        3.187198      3.199359   1.000000   1.000000
   38        3.760694      3.752824   1.000000   1.000000
   39        4.061372      4.081151   1.000000   1.000000
   40        4.221646      4.198693   1.000000   1.000000
   41        4.287616      4.299007   1.000000   1.000000
   42        4.541268      4.554321   1.000000   1.000000
   43        4.613314      4.609866   1.000000   1.000000
   44        5.207336      5.178324   1.000000   1.000000
   45        5.288631      5.328884   1.000000   1.000000
   46        5.681104      5.675165   1.000000   1.000000
   47        5.894399      5.885146   1.000000   1.000000
   48        7.833238      7.827033   0.000000   0.000000
   49        7.910657      7.906424   0.000000   0.000000
   50        8.094421      8.091349   0.000000   0.000000
   51        8.858216      8.843306   0.000000   0.000000
   52        8.954117      8.968648   0.000000   0.000000
   53        9.851501      9.860024   0.000000   0.000000
   54        9.975544      9.965712   0.000000   0.000000
   55       11.055582     11.047649   0.000000   0.000000
   56       11.231668     11.237973   0.000000   0.000000
 
  0.5000000E+00  0.6521739E-01  0.0000000E+00  0.8333333E-02
    1      -50.303797    -50.298669   1.000000   1.000000
    2      -50.240981    -50.236149   1.000000   1.000000
    3      -50.240960    -50.236126   1.000000   1.000000
    4      -45.702499    -45.707552   1.000000   1.000000
    5      -45.653438    -45.658283   1.000000   1.000000
    6      -45.653423    -45.658267   1.000000   1.000000
    7      -16.187994    -16.187336   1.000000   1.000000
    8      -16.180112    -16.181781   1.000000   1.000000
    9      -16.169784    -16.167545   1.000000   1.000000
   10      -16.161485    -16.162763   1.000000   1.000000
   11      -16.122596    -16.121785   1.000000   1.000000
   12      -16.120675    -16.121634   1.000000   1.000000
   13      -16.110217    -16.110448   1.000000   1.000000
   14      -16.109253    -16.108741   1.000000   1.000000
   15      -16.098643    -16.098978   1.000000   1.000000
   16      -16.095564    -16.095312   1.000000   1.000000
   17      -11.834288    -11.832864   1.000000   1.000000
   18      -11.711128    -11.712367   1.000000   1.000000
   19      -10.839546    -10.839253   1.000000   1.000000
   20      -10.748017    -10.729658   1.000000   1.000000
   21      -10.682058    -10.707834   1.000000   1.000000
   22      -10.622262    -10.615039   1.000000   1.000000
   23       -3.510939     -3.510602   1.000000   1.000000
   24       -3.418529     -3.418799   1.000000   1.000000
   25        0.304782      0.308370   1.000000   1.000000
   26        0.477454      0.462132   1.000000   1.000000
   27        0.589881      0.582214   1.000000   1.000000
   28        0.782781      0.789406   1.000000   1.000000
   29        1.094001      1.091096   1.000000   1.000000
   30        1.199095      1.248295   1.000000   1.000000
   31        1.580233      1.575546   1.000000   1.000000
   32        1.727321      1.795390   1.000000   1.000000
   33        2.237302      2.156486   1.000000   1.000000
   34        2.594004      2.594780   1.000000   1.000000
   35        2.796779      2.732557   1.000000   1.000000
   36        2.951401      2.977298   1.000000   1.000000
   37        3.185580      3.212501   1.000000   1.000000
   38        3.750816      3.735160   1.000000   1.000000
   39        4.045027      4.083901   1.000000   1.000000
   40        4.217648      4.178531   1.000000   1.000000
   41        4.287214      4.306696   1.000000   1.000000
   42        4.536210      4.560740   1.000000   1.000000
   43        4.617902      4.612123   1.000000   1.000000
   44        5.211846      5.158664   1.000000   1.000000
   45        5.270850      5.348674   1.000000   1.000000
   46        5.678880      5.665180   1.000000   1.000000
   47        5.896501      5.875307   1.000000   1.000000
   48        7.839033      7.829704   0.000000   0.000000
   49        7.912446      7.907759   0.000000   0.000000
   50        8.092126      8.089548   0.000000   0.000000
   51        8.855297      8.830847   0.000000   0.000000
   52        8.952722      8.983919   0.000000   0.000000
   53        9.846101      9.866056   0.000000   0.000000
   54        9.985368      9.962953   0.000000   0.000000
   55       11.014819     11.003040   0.000000   0.000000
   56       11.262759     11.271242   0.000000   0.000000
 
  0.5000000E+00  0.8695652E-01  0.0000000E+00  0.8333333E-02
    1      -50.303798    -50.298670   1.000000   1.000000
    2      -50.240982    -50.236149   1.000000   1.000000
    3      -50.240960    -50.236126   1.000000   1.000000
    4      -45.702500    -45.707552   1.000000   1.000000
    5      -45.653439    -45.658284   1.000000   1.000000
    6      -45.653423    -45.658267   1.000000   1.000000
    7      -16.190817    -16.190288   1.000000   1.000000
    8      -16.180293    -16.181956   1.000000   1.000000
    9      -16.169305    -16.166908   1.000000   1.000000
   10      -16.159069    -16.160391   1.000000   1.000000
   11      -16.123114    -16.122284   1.000000   1.000000
   12      -16.120616    -16.121680   1.000000   1.000000
   13      -16.110173    -16.110534   1.000000   1.000000
   14      -16.109423    -16.108614   1.000000   1.000000
   15      -16.098688    -16.099067   1.000000   1.000000
   16      -16.094610    -16.094385   1.000000   1.000000
   17      -11.845281    -11.843668   1.000000   1.000000
   18      -11.689090    -11.690647   1.000000   1.000000
   19      -10.846991    -10.847367   1.000000   1.000000
   20      -10.761000    -10.738609   1.000000   1.000000
   21      -10.681143    -10.712649   1.000000   1.000000
   22      -10.616605    -10.606863   1.000000   1.000000
   23       -3.527955     -3.527539   1.000000   1.000000
   24       -3.403894     -3.404292   1.000000   1.000000
   25        0.284551      0.286980   1.000000   1.000000
   26        0.495568      0.469707   1.000000   1.000000
   27        0.595289      0.579092   1.000000   1.000000
   28        0.792905      0.805243   1.000000   1.000000
   29        1.090706      1.085623   1.000000   1.000000
   30        1.187713      1.264104   1.000000   1.000000
   31        1.580225      1.585923   1.000000   1.000000
   32        1.717607      1.806496   1.000000   1.000000
   33        2.287605      2.170778   1.000000   1.000000
   34        2.602884      2.598970   1.000000   1.000000
   35        2.810666      2.707171   1.000000   1.000000
   36        2.955243      2.988413   1.000000   1.000000
   37        3.183733      3.232593   1.000000   1.000000
   38        3.738655      3.713741   1.000000   1.000000
   39        4.023922      4.081746   1.000000   1.000000
   40        4.204123      4.157768   1.000000   1.000000
   41        4.291872      4.315035   1.000000   1.000000
   42        4.532637      4.566860   1.000000   1.000000
   43        4.622713      4.615757   1.000000   1.000000
   44        5.208829      5.138606   1.000000   1.000000
   45        5.254966      5.368796   1.000000   1.000000
   46        5.675160      5.651599   1.000000   1.000000
   47        5.898892      5.862207   1.000000   1.000000
   48        7.846785      7.833124   0.000000   0.000000
   49        7.914824      7.909806   0.000000   0.000000
   50        8.089097      8.087002   0.000000   0.000000
   51        8.847521      8.815946   0.000000   0.000000
   52        8.955039      9.002170   0.000000   0.000000
   53        9.835416      9.872635   0.000000   0.000000
   54       10.000777      9.959571   0.000000   0.000000
   55       10.976484     10.961936   0.000000   0.000000
   56       11.288012     11.297900   0.000000   0.000000
 
  0.5000000E+00  0.1086957E+00  0.0000000E+00  0.8333333E-02
    1      -50.303798    -50.298669   1.000000   1.000000
    2      -50.240982    -50.236151   1.000000   1.000000
    3      -50.240961    -50.236126   1.000000   1.000000
    4      -45.702500    -45.707552   1.000000   1.000000
    5      -45.653441    -45.658283   1.000000   1.000000
    6      -45.653422    -45.658269   1.000000   1.000000
    7      -16.193814    -16.193401   1.000000   1.000000
    8      -16.180595    -16.182139   1.000000   1.000000
    9      -16.168534    -16.166155   1.000000   1.000000
   10      -16.156688    -16.158007   1.000000   1.000000
   11      -16.123727    -16.123004   1.000000   1.000000
   12      -16.120542    -16.121583   1.000000   1.000000
   13      -16.110165    -16.110628   1.000000   1.000000
   14      -16.109567    -16.108499   1.000000   1.000000
   15      -16.098715    -16.099122   1.000000   1.000000
   16      -16.093482    -16.093293   1.000000   1.000000
   17      -11.855018    -11.853217   1.000000   1.000000
   18      -11.665304    -11.667215   1.000000   1.000000
   19      -10.856628    -10.857364   1.000000   1.000000
   20      -10.774560    -10.751718   1.000000   1.000000
   21      -10.682280    -10.715034   1.000000   1.000000
   22      -10.609807    -10.598718   1.000000   1.000000
   23       -3.545768     -3.545283   1.000000   1.000000
   24       -3.389077     -3.389603   1.000000   1.000000
   25        0.263041      0.263620   1.000000   1.000000
   26        0.512929      0.476116   1.000000   1.000000
   27        0.603395      0.576459   1.000000   1.000000
   28        0.804983      0.826163   1.000000   1.000000
   29        1.085814      1.079175   1.000000   1.000000
   30        1.176448      1.278112   1.000000   1.000000
   31        1.571117      1.602719   1.000000   1.000000
   32        1.724998      1.817975   1.000000   1.000000
   33        2.330938      2.190176   1.000000   1.000000
   34        2.619345      2.600711   1.000000   1.000000
   35        2.829942      2.684822   1.000000   1.000000
   36        2.960029      2.994861   1.000000   1.000000
   37        3.182066      3.259650   1.000000   1.000000
   38        3.725432      3.690547   1.000000   1.000000
   39        3.999277      4.069833   1.000000   1.000000
   40        4.180428      4.140958   1.000000   1.000000
   41        4.301313      4.324042   1.000000   1.000000
   42        4.531888      4.570988   1.000000   1.000000
   43        4.626942      4.620813   1.000000   1.000000
   44        5.187044      5.120037   1.000000   1.000000
   45        5.252159      5.386954   1.000000   1.000000
   46        5.669725      5.635167   1.000000   1.000000
   47        5.901009      5.846403   1.000000   1.000000
   48        7.856148      7.836973   0.000000   0.000000
   49        7.917682      7.912749   0.000000   0.000000
   50        8.085509      8.083701   0.000000   0.000000
   51        8.833366      8.799097   0.000000   0.000000
   52        8.962972      9.022381   0.000000   0.000000
   53        9.818623      9.876138   0.000000   0.000000
   54       10.021428      9.958064   0.000000   0.000000
   55       10.942462     10.926691   0.000000   0.000000
   56       11.306331     11.316262   0.000000   0.000000
 
  0.5000000E+00  0.1304348E+00  0.0000000E+00  0.8333333E-02
    1      -50.303798    -50.298669   1.000000   1.000000
    2      -50.240982    -50.236150   1.000000   1.000000
    3      -50.240959    -50.236125   1.000000   1.000000
    4      -45.702500    -45.707552   1.000000   1.000000
    5      -45.653439    -45.658284   1.000000   1.000000
    6      -45.653421    -45.658266   1.000000   1.000000
    7      -16.196890    -16.196569   1.000000   1.000000
    8      -16.180935    -16.182317   1.000000   1.000000
    9      -16.167579    -16.165302   1.000000   1.000000
   10      -16.154414    -16.155712   1.000000   1.000000
   11      -16.124404    -16.123785   1.000000   1.000000
   12      -16.120451    -16.121463   1.000000   1.000000
   13      -16.110237    -16.110726   1.000000   1.000000
   14      -16.109637    -16.108411   1.000000   1.000000
   15      -16.098715    -16.099132   1.000000   1.000000
   16      -16.092212    -16.092059   1.000000   1.000000
   17      -11.863243    -11.861279   1.000000   1.000000
   18      -11.640186    -11.642468   1.000000   1.000000
   19      -10.868417    -10.869028   1.000000   1.000000
   20      -10.788324    -10.767006   1.000000   1.000000
   21      -10.685054    -10.716610   1.000000   1.000000
   22      -10.602429    -10.590906   1.000000   1.000000
   23       -3.564374     -3.563831   1.000000   1.000000
   24       -3.374012     -3.374664   1.000000   1.000000
   25        0.240744      0.239043   1.000000   1.000000
   26        0.528214      0.481083   1.000000   1.000000
   27        0.614699      0.575774   1.000000   1.000000
   28        0.818546      0.851058   1.000000   1.000000
   29        1.078883      1.071871   1.000000   1.000000
   30        1.166838      1.288332   1.000000   1.000000
   31        1.557535      1.626757   1.000000   1.000000
   32        1.746446      1.828850   1.000000   1.000000
   33        2.360298      2.214908   1.000000   1.000000
   34        2.645719      2.594626   1.000000   1.000000
   35        2.854688      2.671802   1.000000   1.000000
   36        2.966327      2.996810   1.000000   1.000000
   37        3.181085      3.292454   1.000000   1.000000
   38        3.712326      3.667310   1.000000   1.000000
   39        3.972307      4.046638   1.000000   1.000000
   40        4.148995      4.129786   1.000000   1.000000
   41        4.313125      4.333479   1.000000   1.000000
   42        4.534483      4.572510   1.000000   1.000000
   43        4.629825      4.626511   1.000000   1.000000
   44        5.152349      5.104198   1.000000   1.000000
   45        5.256787      5.400853   1.000000   1.000000
   46        5.662546      5.617414   1.000000   1.000000
   47        5.902164      5.828454   1.000000   1.000000
   48        7.866700      7.840877   0.000000   0.000000
   49        7.920903      7.916796   0.000000   0.000000
   50        8.081597      8.079662   0.000000   0.000000
   51        8.813098      8.780388   0.000000   0.000000
   52        8.976576      9.043886   0.000000   0.000000
   53        9.795813      9.870608   0.000000   0.000000
   54       10.046108      9.963362   0.000000   0.000000
   55       10.913994     10.898835   0.000000   0.000000
   56       11.317500     11.326454   0.000000   0.000000
 
  0.5000000E+00  0.1521739E+00  0.0000000E+00  0.8333333E-02
    1      -50.303798    -50.298670   1.000000   1.000000
    2      -50.240982    -50.236149   1.000000   1.000000
    3      -50.240958    -50.236125   1.000000   1.000000
    4      -45.702500    -45.707552   1.000000   1.000000
    5      -45.653438    -45.658284   1.000000   1.000000
    6      -45.653421    -45.658264   1.000000   1.000000
    7      -16.199992    -16.199741   1.000000   1.000000
    8      -16.181273    -16.182483   1.000000   1.000000
    9      -16.166503    -16.164365   1.000000   1.000000
   10      -16.152295    -16.153566   1.000000   1.000000
   11      -16.125115    -16.124592   1.000000   1.000000
   12      -16.120347    -16.121323   1.000000   1.000000
   13      -16.110398    -16.110831   1.000000   1.000000
   14      -16.109632    -16.108365   1.000000   1.000000
   15      -16.098682    -16.099091   1.000000   1.000000
   16      -16.090839    -16.090718   1.000000   1.000000
   17      -11.869866    -11.867774   1.000000   1.000000
   18      -11.613997    -11.616648   1.000000   1.000000
   19      -10.882302    -10.882243   1.000000   1.000000
   20      -10.802146    -10.783457   1.000000   1.000000
   21      -10.689016    -10.718153   1.000000   1.000000
   22      -10.594949    -10.583621   1.000000   1.000000
   23       -3.583737     -3.583150   1.000000   1.000000
   24       -3.358666     -3.359432   1.000000   1.000000
   25        0.217928      0.213754   1.000000   1.000000
   26        0.540786      0.484941   1.000000   1.000000
   27        0.629052      0.577980   1.000000   1.000000
   28        0.833234      0.878460   1.000000   1.000000
   29        1.069708      1.063869   1.000000   1.000000
   30        1.159893      1.294053   1.000000   1.000000
   31        1.545757      1.657581   1.000000   1.000000
   32        1.776501      1.838832   1.000000   1.000000
   33        2.373634      2.244748   1.000000   1.000000
   34        2.680190      2.577523   1.000000   1.000000
   35        2.883019      2.671780   1.000000   1.000000
   36        2.976343      2.995473   1.000000   1.000000
   37        3.181370      3.328919   1.000000   1.000000
   38        3.700376      3.645619   1.000000   1.000000
   39        3.944215      4.015543   1.000000   1.000000
   40        4.112540      4.121678   1.000000   1.000000
   41        4.325387      4.342522   1.000000   1.000000
   42        4.540333      4.571943   1.000000   1.000000
   43        4.630628      4.631452   1.000000   1.000000
   44        5.111985      5.091941   1.000000   1.000000
   45        5.262175      5.407521   1.000000   1.000000
   46        5.653728      5.601009   1.000000   1.000000
   47        5.901638      5.808857   1.000000   1.000000
   48        7.877910      7.844447   0.000000   0.000000
   49        7.924414      7.922137   0.000000   0.000000
   50        8.077627      8.074932   0.000000   0.000000
   51        8.787839      8.759718   0.000000   0.000000
   52        8.994857      9.066141   0.000000   0.000000
   53        9.767583      9.852665   0.000000   0.000000
   54       10.073329      9.978185   0.000000   0.000000
   55       10.891552     10.878981   0.000000   0.000000
   56       11.321888     11.328524   0.000000   0.000000
 
  0.5000000E+00  0.1739130E+00  0.0000000E+00  0.8333333E-02
    1      -50.303799    -50.298670   1.000000   1.000000
    2      -50.240981    -50.236149   1.000000   1.000000
    3      -50.240958    -50.236124   1.000000   1.000000
    4      -45.702501    -45.707552   1.000000   1.000000
    5      -45.653438    -45.658283   1.000000   1.000000
    6      -45.653420    -45.658264   1.000000   1.000000
    7      -16.203071    -16.202874   1.000000   1.000000
    8      -16.181585    -16.182631   1.000000   1.000000
    9      -16.165348    -16.163364   1.000000   1.000000
   10      -16.150365    -16.151602   1.000000   1.000000
   11      -16.125833    -16.125397   1.000000   1.000000
   12      -16.120229    -16.121165   1.000000   1.000000
   13      -16.110602    -16.110944   1.000000   1.000000
   14      -16.109606    -16.108372   1.000000   1.000000
   15      -16.098619    -16.099004   1.000000   1.000000
   16      -16.089387    -16.089292   1.000000   1.000000
   17      -11.874856    -11.872660   1.000000   1.000000
   18      -11.586981    -11.590014   1.000000   1.000000
   19      -10.898101    -10.896883   1.000000   1.000000
   20      -10.815911    -10.800469   1.000000   1.000000
   21      -10.693836    -10.719999   1.000000   1.000000
   22      -10.587669    -10.576922   1.000000   1.000000
   23       -3.603762     -3.603147   1.000000   1.000000
   24       -3.343051     -3.343916   1.000000   1.000000
   25        0.194786      0.188174   1.000000   1.000000
   26        0.550821      0.488533   1.000000   1.000000
   27        0.645441      0.583203   1.000000   1.000000
   28        0.848870      0.906724   1.000000   1.000000
   29        1.058618      1.055477   1.000000   1.000000
   30        1.155823      1.295674   1.000000   1.000000
   31        1.539668      1.693318   1.000000   1.000000
   32        1.811667      1.848692   1.000000   1.000000
   33        2.373870      2.278947   1.000000   1.000000
   34        2.717152      2.553620   1.000000   1.000000
   35        2.908587      2.680823   1.000000   1.000000
   36        2.995595      2.992336   1.000000   1.000000
   37        3.183607      3.366431   1.000000   1.000000
   38        3.690389      3.627149   1.000000   1.000000
   39        3.916207      3.979835   1.000000   1.000000
   40        4.073545      4.114626   1.000000   1.000000
   41        4.337012      4.349868   1.000000   1.000000
   42        4.548991      4.570297   1.000000   1.000000
   43        4.628692      4.634415   1.000000   1.000000
   44        5.068829      5.083724   1.000000   1.000000
   45        5.266422      5.403559   1.000000   1.000000
   46        5.643442      5.589428   1.000000   1.000000
   47        5.898759      5.788029   1.000000   1.000000
   48        7.889051      7.847369   0.000000   0.000000
   49        7.928282      7.928842   0.000000   0.000000
   50        8.073909      8.069624   0.000000   0.000000
   51        8.758658      8.736962   0.000000   0.000000
   52        9.016751      9.088707   0.000000   0.000000
   53        9.734800      9.824009   0.000000   0.000000
   54       10.101738     10.000754   0.000000   0.000000
   55       10.874844     10.866378   0.000000   0.000000
   56       11.321570     11.324591   0.000000   0.000000
 