   10   10    1    2
  0.1285713E+02  0.5706178E-09  0.5706178E-09  0.5706178E-09  0.5000000E-15
  1.000000000000000E-004
  CAR 
 unknown system                          
     94    120     56
 
  0.5000000E+00  0.0000000E+00  0.0000000E+00  0.8333333E-02
    1      -51.636522    -51.631733   1.000000   1.000000
    2      -51.572129    -51.567648   1.000000   1.000000
    3      -51.572099    -51.567614   1.000000   1.000000
    4      -46.649141    -46.653849   1.000000   1.000000
    5      -46.602036    -46.606533   1.000000   1.000000
    6      -46.602009    -46.606505   1.000000   1.000000
    7      -16.042714    -16.042805   1.000000   1.000000
    8      -16.041642    -16.041587   1.000000   1.000000
    9      -16.028787    -16.028892   1.000000   1.000000
   10      -16.027803    -16.027683   1.000000   1.000000
   11      -15.986176    -15.986143   1.000000   1.000000
   12      -15.985399    -15.985433   1.000000   1.000000
   13      -15.974226    -15.974194   1.000000   1.000000
   14      -15.973170    -15.973209   1.000000   1.000000
   15      -15.962693    -15.962838   1.000000   1.000000
   16      -15.961891    -15.961713   1.000000   1.000000
   17      -11.678888    -11.677520   1.000000   1.000000
   18      -11.637431    -11.638376   1.000000   1.000000
   19      -10.733848    -10.732212   1.000000   1.000000
   20      -10.644066    -10.644936   1.000000   1.000000
   21      -10.569419    -10.569487   1.000000   1.000000
   22      -10.513530    -10.514085   1.000000   1.000000
   23       -3.477852     -3.477257   1.000000   1.000000
   24       -3.452124     -3.451601   1.000000   1.000000
   25       -2.275754     -2.271965   1.000000   1.000000
   26       -2.215423     -2.211734   1.000000   1.000000
   27       -2.103480     -2.099241   1.000000   1.000000
   28       -2.026453     -2.022596   1.000000   1.000000
   29       -1.814169     -1.810336   1.000000   1.000000
   30        1.086330      1.085708   1.000000   1.000000
   31        1.267449      1.267809   1.000000   1.000000
   32        1.774486      1.774600   1.000000   1.000000
   33        2.043628      2.043489   1.000000   1.000000
   34        2.338171      2.337764   1.000000   1.000000
   35        2.559987      2.559582   1.000000   1.000000
   36        2.840802      2.841731   1.000000   1.000000
   37        3.119458      3.118641   1.000000   1.000000
   38        3.675827      3.675064   1.000000   1.000000
   39        4.109059      4.109487   1.000000   1.000000
   40        4.342561      4.342336   1.000000   1.000000
   41        4.445862      4.444681   1.000000   1.000000
   42        4.633899      4.634227   1.000000   1.000000
   43        4.744849      4.744482   1.000000   1.000000
   44        4.972641      4.973744   1.000000   1.000000
   45        5.160049      5.160498   1.000000   1.000000
   46        5.482019      5.481540   1.000000   1.000000
   47        5.721667      5.721883   1.000000   1.000000
   48        8.801943      8.798800   0.000000   0.000000
   49        9.054707      9.051187   0.000000   0.000000
   50        9.214089      9.210410   0.000000   0.000000
   51        9.314335      9.311210   0.000000   0.000000
   52        9.395607      9.392223   0.000000   0.000000
   53        9.941380      9.941975   0.000000   0.000000
   54       10.150337     10.148862   0.000000   0.000000
   55       11.208516     11.208394   0.000000   0.000000
   56       11.300825     11.300710   0.000000   0.000000
 
  0.5000000E+00  0.2173913E-01  0.0000000E+00  0.8333333E-02
    1      -51.636522    -51.631733   1.000000   1.000000
    2      -51.572128    -51.567645   1.000000   1.000000
    3      -51.572096    -51.567613   1.000000   1.000000
    4      -46.649142    -46.653849   1.000000   1.000000
    5      -46.602032    -46.606531   1.000000   1.000000
    6      -46.602008    -46.606502   1.000000   1.000000
    7      -16.043741    -16.043436   1.000000   1.000000
    8      -16.041171    -16.041626   1.000000   1.000000
    9      -16.029387    -16.028944   1.000000   1.000000
   10      -16.026661    -16.026975   1.000000   1.000000
   11      -15.986247    -15.986131   1.000000   1.000000
   12      -15.985386    -15.985515   1.000000   1.000000
   13      -15.974203    -15.974220   1.000000   1.000000
   14      -15.973218    -15.973182   1.000000   1.000000
   15      -15.962905    -15.963036   1.000000   1.000000
   16      -15.961514    -15.961366   1.000000   1.000000
   17      -11.685357    -11.683649   1.000000   1.000000
   18      -11.629368    -11.630688   1.000000   1.000000
   19      -10.734500    -10.733324   1.000000   1.000000
   20      -10.645309    -10.644849   1.000000   1.000000
   21      -10.570079    -10.571954   1.000000   1.000000
   22      -10.512880    -10.512449   1.000000   1.000000
   23       -3.484949     -3.483670   1.000000   1.000000
   24       -3.445306     -3.445538   1.000000   1.000000
   25       -2.276906     -2.273495   1.000000   1.000000
   26       -2.215317     -2.210970   1.000000   1.000000
   27       -2.104404     -2.100812   1.000000   1.000000
   28       -2.024431     -2.020442   1.000000   1.000000
   29       -1.814568     -1.810657   1.000000   1.000000
   30        1.081969      1.084094   1.000000   1.000000
   31        1.273385      1.273132   1.000000   1.000000
   32        1.769883      1.775543   1.000000   1.000000
   33        2.048043      2.043044   1.000000   1.000000
   34        2.346543      2.337104   1.000000   1.000000
   35        2.559737      2.560962   1.000000   1.000000
   36        2.841796      2.841654   1.000000   1.000000
   37        3.119363      3.124908   1.000000   1.000000
   38        3.675876      3.672914   1.000000   1.000000
   39        4.105082      4.109135   1.000000   1.000000
   40        4.340403      4.335287   1.000000   1.000000
   41        4.445508      4.447308   1.000000   1.000000
   42        4.633813      4.634337   1.000000   1.000000
   43        4.743960      4.743807   1.000000   1.000000
   44        4.968914      4.971341   1.000000   1.000000
   45        5.159237      5.160755   1.000000   1.000000
   46        5.482952      5.482059   1.000000   1.000000
   47        5.723003      5.720455   1.000000   1.000000
   48        8.804179      8.800141   0.000000   0.000000
   49        9.055159      9.051504   0.000000   0.000000
   50        9.213384      9.210138   0.000000   0.000000
   51        9.313730      9.308675   0.000000   0.000000
   52        9.394280      9.394954   0.000000   0.000000
   53        9.941319      9.943552   0.000000   0.000000
   54       10.151329     10.148239   0.000000   0.000000
   55       11.193035     11.187101   0.000000   0.000000
   56       11.314551     11.319176   0.000000   0.000000
 
  0.5000000E+00  0.4347826E-01  0.0000000E+00  0.8333333E-02
    1      -51.636522    -51.631733   1.000000   1.000000
    2      -51.572126    -51.567642   1.000000   1.000000
    3      -51.572093    -51.567611   1.000000   1.000000
    4      -46.649141    -46.653848   1.000000   1.000000
    5      -46.602028    -46.606529   1.000000   1.000000
    6      -46.602006    -46.606498   1.000000   1.000000
    7      -16.045673    -16.045142   1.000000   1.000000
    8      -16.040812    -16.041714   1.000000   1.000000
    9      -16.029767    -16.028817   1.000000   1.000000
   10      -16.024776    -16.025378   1.000000   1.000000
   11      -15.986464    -15.986108   1.000000   1.000000
   12      -15.985358    -15.985759   1.000000   1.000000
   13      -15.974145    -15.974302   1.000000   1.000000
   14      -15.973361    -15.973113   1.000000   1.000000
   15      -15.963207    -15.963362   1.000000   1.000000
   16      -15.960754    -15.960619   1.000000   1.000000
   17      -11.697905    -11.695526   1.000000   1.000000
   18      -11.612160    -11.614253   1.000000   1.000000
   19      -10.736543    -10.736602   1.000000   1.000000
   20      -10.648921    -10.644697   1.000000   1.000000
   21      -10.572093    -10.578663   1.000000   1.000000
   22      -10.511010    -10.508272   1.000000   1.000000
   23       -3.498455     -3.496263   1.000000   1.000000
   24       -3.432645     -3.434002   1.000000   1.000000
   25       -2.280209     -2.277783   1.000000   1.000000
   26       -2.215093     -2.208957   1.000000   1.000000
   27       -2.106814     -2.105000   1.000000   1.000000
   28       -2.018812     -2.014539   1.000000   1.000000
   29       -1.815767     -1.811633   1.000000   1.000000
   30        1.070504      1.079865   1.000000   1.000000
   31        1.289557      1.288422   1.000000   1.000000
   32        1.757975      1.778364   1.000000   1.000000
   33        2.059711      2.041739   1.000000   1.000000
   34        2.371112      2.335286   1.000000   1.000000
   35        2.559028      2.565110   1.000000   1.000000
   36        2.844758      2.841633   1.000000   1.000000
   37        3.119143      3.143209   1.000000   1.000000
   38        3.676060      3.666691   1.000000   1.000000
   39        4.093682      4.107891   1.000000   1.000000
   40        4.333065      4.316390   1.000000   1.000000
   41        4.444765      4.453110   1.000000   1.000000
   42        4.633391      4.634584   1.000000   1.000000
   43        4.741529      4.741657   1.000000   1.000000
   44        4.958413      4.964698   1.000000   1.000000
   45        5.156605      5.160960   1.000000   1.000000
   46        5.485259      5.483643   1.000000   1.000000
   47        5.727052      5.716326   1.000000   1.000000
   48        8.810798      8.804073   0.000000   0.000000
   49        9.056528      9.052452   0.000000   0.000000
   50        9.211271      9.209085   0.000000   0.000000
   51        9.311459      9.301961   0.000000   0.000000
   52        9.390856      9.402377   0.000000   0.000000
   53        9.940527      9.948281   0.000000   0.000000
   54       10.154695     10.146157   0.000000   0.000000
   55       11.161041     11.145595   0.000000   0.000000
   56       11.341518     11.351981   0.000000   0.000000
 
  0.5000000E+00  0.6521739E-01  0.0000000E+00  0.8333333E-02
    1      -51.636523    -51.631734   1.000000   1.000000
    2      -51.572126    -51.567641   1.000000   1.000000
    3      -51.572092    -51.567611   1.000000   1.000000
    4      -46.649142    -46.653849   1.000000   1.000000
    5      -46.602027    -46.606529   1.000000   1.000000
    6      -46.602006    -46.606497   1.000000   1.000000
    7      -16.048082    -16.047528   1.000000   1.000000
    8      -16.040742    -16.041832   1.000000   1.000000
    9      -16.029682    -16.028449   1.000000   1.000000
   10      -16.022663    -16.023387   1.000000   1.000000
   11      -15.986815    -15.986236   1.000000   1.000000
   12      -15.985313    -15.985985   1.000000   1.000000
   13      -15.974067    -15.974432   1.000000   1.000000
   14      -15.973578    -15.973019   1.000000   1.000000
   15      -15.963452    -15.963650   1.000000   1.000000
   16      -15.959784    -15.959657   1.000000   1.000000
   17      -11.710996    -11.707875   1.000000   1.000000
   18      -11.591411    -11.594415   1.000000   1.000000
   19      -10.740044    -10.741959   1.000000   1.000000
   20      -10.654608    -10.644634   1.000000   1.000000
   21      -10.575475    -10.588239   1.000000   1.000000
   22      -10.508145    -10.502878   1.000000   1.000000
   23       -3.513776     -3.510809   1.000000   1.000000
   24       -3.418739     -3.421208   1.000000   1.000000
   25       -2.285287     -2.284143   1.000000   1.000000
   26       -2.214957     -2.206276   1.000000   1.000000
   27       -2.109950     -2.110707   1.000000   1.000000
   28       -2.010603     -2.006072   1.000000   1.000000
   29       -1.817741     -1.813274   1.000000   1.000000
   30        1.055124      1.074318   1.000000   1.000000
   31        1.312712      1.312172   1.000000   1.000000
   32        1.742924      1.783036   1.000000   1.000000
   33        2.075520      2.039675   1.000000   1.000000
   34        2.410118      2.332744   1.000000   1.000000
   35        2.558054      2.572042   1.000000   1.000000
   36        2.849641      2.842155   1.000000   1.000000
   37        3.118983      3.172209   1.000000   1.000000
   38        3.676513      3.657045   1.000000   1.000000
   39        4.076203      4.105249   1.000000   1.000000
   40        4.318737      4.289405   1.000000   1.000000
   41        4.444164      4.458846   1.000000   1.000000
   42        4.632163      4.634598   1.000000   1.000000
   43        4.738150      4.737803   1.000000   1.000000
   44        4.942838      4.955253   1.000000   1.000000
   45        5.151794      5.159689   1.000000   1.000000
   46        5.487684      5.486350   1.000000   1.000000
   47        5.733850      5.709955   1.000000   1.000000
   48        8.821511      8.810347   0.000000   0.000000
   49        9.058870      9.054035   0.000000   0.000000
   50        9.207815      9.206531   0.000000   0.000000
   51        9.306243      9.292940   0.000000   0.000000
   52        9.386958      9.412990   0.000000   0.000000
   53        9.937410      9.956156   0.000000   0.000000
   54       10.161479     10.142053   0.000000   0.000000
   55       11.125457     11.100967   0.000000   0.000000
   56       11.368296     11.383042   0.000000   0.000000
 
  0.5000000E+00  0.8695652E-01  0.0000000E+00  0.8333333E-02
    1      -51.636524    -51.631735   1.000000   1.000000
    2      -51.572127    -51.567641   1.000000   1.000000
    3      -51.572092    -51.567612   1.000000   1.000000
    4      -46.649143    -46.653850   1.000000   1.000000
    5      -46.602027    -46.606530   1.000000   1.000000
    6      -46.602007    -46.606498   1.000000   1.000000
    7      -16.050789    -16.050275   1.000000   1.000000
    8      -16.040847    -16.041965   1.000000   1.000000
    9      -16.029240    -16.027893   1.000000   1.000000
   10      -16.020483    -16.021258   1.000000   1.000000
   11      -15.987276    -15.986740   1.000000   1.000000
   12      -15.985247    -15.985932   1.000000   1.000000
   13      -15.973973    -15.974598   1.000000   1.000000
   14      -15.973838    -15.972906   1.000000   1.000000
   15      -15.963635    -15.963877   1.000000   1.000000
   16      -15.958642    -15.958526   1.000000   1.000000
   17      -11.723132    -11.719292   1.000000   1.000000
   18      -11.568659    -11.572612   1.000000   1.000000
   19      -10.745111    -10.749152   1.000000   1.000000
   20      -10.661876    -10.644898   1.000000   1.000000
   21      -10.580137    -10.599554   1.000000   1.000000
   22      -10.504525    -10.497174   1.000000   1.000000
   23       -3.530102     -3.526508   1.000000   1.000000
   24       -3.404365     -3.407906   1.000000   1.000000
   25       -2.291658     -2.291863   1.000000   1.000000
   26       -2.215100     -2.203495   1.000000   1.000000
   27       -2.113126     -2.116910   1.000000   1.000000
   28       -2.000856     -1.996161   1.000000   1.000000
   29       -1.820440     -1.815585   1.000000   1.000000
   30        1.038506      1.068628   1.000000   1.000000
   31        1.340056      1.342896   1.000000   1.000000
   32        1.728807      1.789515   1.000000   1.000000
   33        2.093083      2.037023   1.000000   1.000000
   34        2.460385      2.330098   1.000000   1.000000
   35        2.557484      2.581773   1.000000   1.000000
   36        2.856361      2.843751   1.000000   1.000000
   37        3.119141      3.210059   1.000000   1.000000
   38        3.677468      3.644998   1.000000   1.000000
   39        4.054280      4.100515   1.000000   1.000000
   40        4.296174      4.256933   1.000000   1.000000
   41        4.443665      4.462744   1.000000   1.000000
   42        4.629383      4.633465   1.000000   1.000000
   43        4.734514      4.732319   1.000000   1.000000
   44        4.924248      4.944739   1.000000   1.000000
   45        5.144662      5.155221   1.000000   1.000000
   46        5.488773      5.490191   1.000000   1.000000
   47        5.743218      5.702056   1.000000   1.000000
   48        8.835862      8.818566   0.000000   0.000000
   49        9.062237      9.056270   0.000000   0.000000
   50        9.203112      9.201219   0.000000   0.000000
   51        9.296462      9.283627   0.000000   0.000000
   52        9.384736      9.425617   0.000000   0.000000
   53        9.930061      9.967014   0.000000   0.000000
   54       10.172822     10.135223   0.000000   0.000000
   55       11.090903     11.058806   0.000000   0.000000
   56       11.391144     11.407770   0.000000   0.000000
 
  0.5000000E+00  0.1086957E+00  0.0000000E+00  0.8333333E-02
    1      -51.636524    -51.631735   1.000000   1.000000
    2      -51.572127    -51.567643   1.000000   1.000000
    3      -51.572094    -51.567612   1.000000   1.000000
    4      -46.649143    -46.653851   1.000000   1.000000
    5      -46.602030    -46.606530   1.000000   1.000000
    6      -46.602007    -46.606500   1.000000   1.000000
    7      -16.053676    -16.053212   1.000000   1.000000
    8      -16.041040    -16.042104   1.000000   1.000000
    9      -16.028549    -16.027188   1.000000   1.000000
   10      -16.018347    -16.019145   1.000000   1.000000
   11      -15.987817    -15.987354   1.000000   1.000000
   12      -15.985164    -15.985832   1.000000   1.000000
   13      -15.974146    -15.974784   1.000000   1.000000
   14      -15.973840    -15.972785   1.000000   1.000000
   15      -15.963777    -15.964053   1.000000   1.000000
   16      -15.957350    -15.957248   1.000000   1.000000
   17      -11.733860    -11.729368   1.000000   1.000000
   18      -11.544454    -11.549356   1.000000   1.000000
   19      -10.751885    -10.757990   1.000000   1.000000
   20      -10.670286    -10.645936   1.000000   1.000000
   21      -10.585934    -10.611732   1.000000   1.000000
   22      -10.500465    -10.491655   1.000000   1.000000
   23       -3.547264     -3.543193   1.000000   1.000000
   24       -3.389678     -3.394222   1.000000   1.000000
   25       -2.298849     -2.300353   1.000000   1.000000
   26       -2.215607     -2.201030   1.000000   1.000000
   27       -2.115929     -2.122871   1.000000   1.000000
   28       -1.990487     -1.985685   1.000000   1.000000
   29       -1.823776     -1.818546   1.000000   1.000000
   30        1.022377      1.063475   1.000000   1.000000
   31        1.369657      1.379503   1.000000   1.000000
   32        1.718696      1.797709   1.000000   1.000000
   33        2.111209      2.034020   1.000000   1.000000
   34        2.514897      2.328009   1.000000   1.000000
   35        2.561359      2.594298   1.000000   1.000000
   36        2.864791      2.846816   1.000000   1.000000
   37        3.119885      3.254580   1.000000   1.000000
   38        3.679281      3.631919   1.000000   1.000000
   39        4.029445      4.092939   1.000000   1.000000
   40        4.265462      4.220597   1.000000   1.000000
   41        4.442503      4.464149   1.000000   1.000000
   42        4.624108      4.629599   1.000000   1.000000
   43        4.731090      4.726064   1.000000   1.000000
   44        4.904557      4.934667   1.000000   1.000000
   45        5.135464      5.146035   1.000000   1.000000
   46        5.487408      5.495002   1.000000   1.000000
   47        5.754579      5.693526   1.000000   1.000000
   48        8.853200      8.828202   0.000000   0.000000
   49        9.066623      9.059176   0.000000   0.000000
   50        9.197276      9.191587   0.000000   0.000000
   51        9.281287      9.275858   0.000000   0.000000
   52        9.385696      9.439461   0.000000   0.000000
   53        9.917093      9.980167   0.000000   0.000000
   54       10.189250     10.125317   0.000000   0.000000
   55       11.059526     11.022210   0.000000   0.000000
   56       11.408373     11.424820   0.000000   0.000000
 
  0.5000000E+00  0.1304348E+00  0.0000000E+00  0.8333333E-02
    1      -51.636524    -51.631735   1.000000   1.000000
    2      -51.572127    -51.567642   1.000000   1.000000
    3      -51.572092    -51.567612   1.000000   1.000000
    4      -46.649143    -46.653850   1.000000   1.000000
    5      -46.602028    -46.606530   1.000000   1.000000
    6      -46.602008    -46.606498   1.000000   1.000000
    7      -16.056645    -16.056227   1.000000   1.000000
    8      -16.041260    -16.042234   1.000000   1.000000
    9      -16.027687    -16.026365   1.000000   1.000000
   10      -16.016323    -16.017131   1.000000   1.000000
   11      -15.988413    -15.988026   1.000000   1.000000
   12      -15.985060    -15.985706   1.000000   1.000000
   13      -15.974439    -15.974978   1.000000   1.000000
   14      -15.973719    -15.972669   1.000000   1.000000
   15      -15.963870    -15.964170   1.000000   1.000000
   16      -15.955930    -15.955842   1.000000   1.000000
   17      -11.742968    -11.737926   1.000000   1.000000
   18      -11.519111    -11.524926   1.000000   1.000000
   19      -10.760490    -10.768261   1.000000   1.000000
   20      -10.679430    -10.648657   1.000000   1.000000
   21      -10.592579    -10.623539   1.000000   1.000000
   22      -10.496208    -10.486540   1.000000   1.000000
   23       -3.565193     -3.560798   1.000000   1.000000
   24       -3.374693     -3.380134   1.000000   1.000000
   25       -2.306457     -2.309165   1.000000   1.000000
   26       -2.216454     -2.199156   1.000000   1.000000
   27       -2.118182     -2.128058   1.000000   1.000000
   28       -1.980268     -1.975327   1.000000   1.000000
   29       -1.827597     -1.822098   1.000000   1.000000
   30        1.007786      1.059096   1.000000   1.000000
   31        1.400201      1.421281   1.000000   1.000000
   32        1.714698      1.807460   1.000000   1.000000
   33        2.129325      2.030978   1.000000   1.000000
   34        2.542048      2.327059   1.000000   1.000000
   35        2.598381      2.609595   1.000000   1.000000
   36        2.874767      2.851589   1.000000   1.000000
   37        3.121401      3.303136   1.000000   1.000000
   38        3.682446      3.619658   1.000000   1.000000
   39        4.002956      4.081762   1.000000   1.000000
   40        4.227758      4.181694   1.000000   1.000000
   41        4.439708      4.462657   1.000000   1.000000
   42        4.615367      4.621272   1.000000   1.000000
   43        4.727923      4.720652   1.000000   1.000000
   44        4.885311      4.925997   1.000000   1.000000
   45        5.124825      5.131121   1.000000   1.000000
   46        5.483084      5.500331   1.000000   1.000000
   47        5.766951      5.685361   1.000000   1.000000
   48        8.872664      8.838586   0.000000   0.000000
   49        9.071863      9.062759   0.000000   0.000000
   50        9.190451      9.176676   0.000000   0.000000
   51        9.261337      9.270709   0.000000   0.000000
   52        9.390122      9.453964   0.000000   0.000000
   53        9.898148      9.993438   0.000000   0.000000
   54       10.210321     10.113571   0.000000   0.000000
   55       11.032409     10.993147   0.000000   0.000000
   56       11.418662     11.432333   0.000000   0.000000
 
  0.5000000E+00  0.1521739E+00  0.0000000E+00  0.8333333E-02
    1      -51.636525    -51.631736   1.000000   1.000000
    2      -51.572127    -51.567641   1.000000   1.000000
    3      -51.572091    -51.567612   1.000000   1.000000
    4      -46.649144    -46.653851   1.000000   1.000000
    5      -46.602026    -46.606530   1.000000   1.000000
    6      -46.602007    -46.606497   1.000000   1.000000
    7      -16.059643    -16.059266   1.000000   1.000000
    8      -16.041481    -16.042350   1.000000   1.000000
    9      -16.026706    -16.025446   1.000000   1.000000
   10      -16.014463    -16.015275   1.000000   1.000000
   11      -15.989031    -15.988718   1.000000   1.000000
   12      -15.984943    -15.985560   1.000000   1.000000
   13      -15.974733    -15.975180   1.000000   1.000000
   14      -15.973605    -15.972578   1.000000   1.000000
   15      -15.963918    -15.964228   1.000000   1.000000
   16      -15.954424    -15.954348   1.000000   1.000000
   17      -11.750454    -11.744965   1.000000   1.000000
   18      -11.492855    -11.499527   1.000000   1.000000
   19      -10.771036    -10.779849   1.000000   1.000000
   20      -10.689087    -10.655156   1.000000   1.000000
   21      -10.599822    -10.632734   1.000000   1.000000
   22      -10.492018    -10.482011   1.000000   1.000000
   23       -3.583838     -3.579266   1.000000   1.000000
   24       -3.359426     -3.365627   1.000000   1.000000
   25       -2.314150     -2.317954   1.000000   1.000000
   26       -2.217541     -2.198036   1.000000   1.000000
   27       -2.119861     -2.132111   1.000000   1.000000
   28       -1.970918     -1.965711   1.000000   1.000000
   29       -1.831680     -1.826104   1.000000   1.000000
   30        0.995326      1.055418   1.000000   1.000000
   31        1.430788      1.467773   1.000000   1.000000
   32        1.718143      1.818518   1.000000   1.000000
   33        2.146945      2.028290   1.000000   1.000000
   34        2.545204      2.327662   1.000000   1.000000
   35        2.662617      2.627645   1.000000   1.000000
   36        2.886076      2.858166   1.000000   1.000000
   37        3.123698      3.352118   1.000000   1.000000
   38        3.687571      3.610972   1.000000   1.000000
   39        3.975756      4.065978   1.000000   1.000000
   40        4.184824      4.141790   1.000000   1.000000
   41        4.434553      4.457496   1.000000   1.000000
   42        4.602452      4.608067   1.000000   1.000000
   43        4.724548      4.717395   1.000000   1.000000
   44        4.867628      4.919086   1.000000   1.000000
   45        5.113584      5.110123   1.000000   1.000000
   46        5.475854      5.505384   1.000000   1.000000
   47        5.779147      5.678563   1.000000   1.000000
   48        8.893112      8.848888   0.000000   0.000000
   49        9.077445      9.066952   0.000000   0.000000
   50        9.182801      9.156865   0.000000   0.000000
   51        9.238264      9.268007   0.000000   0.000000
   52        9.397624      9.468684   0.000000   0.000000
   53        9.873795     10.000783   0.000000   0.000000
   54       10.234799     10.105430   0.000000   0.000000
   55       11.010387     10.972470   0.000000   0.000000
   56       11.424865     11.432691   0.000000   0.000000
 
  0.5000000E+00  0.1739130E+00  0.0000000E+00  0.8333333E-02
    1      -51.636524    -51.631735   1.000000   1.000000
    2      -51.572126    -51.567639   1.000000   1.000000
    3      -51.572090    -51.567611   1.000000   1.000000
    4      -46.649143    -46.653850   1.000000   1.000000
    5      -46.602025    -46.606528   1.000000   1.000000
    6      -46.602006    -46.606496   1.000000   1.000000
    7      -16.062621    -16.062280   1.000000   1.000000
    8      -16.041682    -16.042446   1.000000   1.000000
    9      -16.025641    -16.024453   1.000000   1.000000
   10      -16.012800    -16.013607   1.000000   1.000000
   11      -15.989643    -15.989401   1.000000   1.000000
   12      -15.984810    -15.985395   1.000000   1.000000
   13      -15.975019    -15.975383   1.000000   1.000000
   14      -15.973515    -15.972528   1.000000   1.000000
   15      -15.963922    -15.964228   1.000000   1.000000
   16      -15.952840    -15.952775   1.000000   1.000000
   17      -11.756280    -11.750458   1.000000   1.000000
   18      -11.465896    -11.473360   1.000000   1.000000
   19      -10.783464    -10.792597   1.000000   1.000000
   20      -10.699084    -10.666540   1.000000   1.000000
   21      -10.607328    -10.637948   1.000000   1.000000
   22      -10.488041    -10.478076   1.000000   1.000000
   23       -3.603099     -3.598490   1.000000   1.000000
   24       -3.343912     -3.350701   1.000000   1.000000
   25       -2.321653     -2.326440   1.000000   1.000000
   26       -2.218705     -2.197696   1.000000   1.000000
   27       -2.121023     -2.134828   1.000000   1.000000
   28       -1.963133     -1.957450   1.000000   1.000000
   29       -1.835686     -1.830310   1.000000   1.000000
   30        0.985326      1.052213   1.000000   1.000000
   31        1.460933      1.518660   1.000000   1.000000
   32        1.729674      1.830533   1.000000   1.000000
   33        2.163444      2.026463   1.000000   1.000000
   34        2.546997      2.330034   1.000000   1.000000
   35        2.729332      2.648436   1.000000   1.000000
   36        2.898481      2.866545   1.000000   1.000000
   37        3.126535      3.396019   1.000000   1.000000
   38        3.695264      3.610322   1.000000   1.000000
   39        3.948488      4.043633   1.000000   1.000000
   40        4.138775      4.103582   1.000000   1.000000
   41        4.426682      4.447295   1.000000   1.000000
   42        4.585264      4.591931   1.000000   1.000000
   43        4.719979      4.716262   1.000000   1.000000
   44        4.852259      4.913842   1.000000   1.000000
   45        5.102624      5.083375   1.000000   1.000000
   46        5.466134      5.509109   1.000000   1.000000
   47        5.790012      5.674032   1.000000   1.000000
   48        8.913001      8.858076   0.000000   0.000000
   49        9.082239      9.071382   0.000000   0.000000
   50        9.174493      9.133823   0.000000   0.000000
   51        9.214577      9.266877   0.000000   0.000000
   52        9.407819      9.483296   0.000000   0.000000
   53        9.845181      9.992370   0.000000   0.000000
   54       10.261139     10.110737   0.000000   0.000000
   55       10.992513     10.959582   0.000000   0.000000
   56       11.422199     11.426064   0.000000   0.000000
 