   10   10    1    2
  0.1285713E+02  0.5706178E-09  0.5706178E-09  0.5706178E-09  0.5000000E-15
  1.000000000000000E-004
  CAR 
 unknown system                          
     94    120     56
 
  0.5000000E+00  0.0000000E+00  0.0000000E+00  0.8333333E-02
    1      -50.027376    -50.022585   1.000000   1.000000
    2      -49.979918    -49.975432   1.000000   1.000000
    3      -49.979888    -49.975398   1.000000   1.000000
    4      -45.540752    -45.545474   1.000000   1.000000
    5      -45.501720    -45.506216   1.000000   1.000000
    6      -45.501691    -45.506190   1.000000   1.000000
    7      -16.245102    -16.245203   1.000000   1.000000
    8      -16.244382    -16.244331   1.000000   1.000000
    9      -16.232012    -16.232084   1.000000   1.000000
   10      -16.230550    -16.230460   1.000000   1.000000
   11      -16.188656    -16.188591   1.000000   1.000000
   12      -16.187462    -16.187521   1.000000   1.000000
   13      -16.177321    -16.177247   1.000000   1.000000
   14      -16.175748    -16.175848   1.000000   1.000000
   15      -16.165586    -16.165777   1.000000   1.000000
   16      -16.164118    -16.163875   1.000000   1.000000
   17      -11.829095    -11.827791   1.000000   1.000000
   18      -11.779827    -11.780791   1.000000   1.000000
   19      -10.850953    -10.848886   1.000000   1.000000
   20      -10.752883    -10.754224   1.000000   1.000000
   21      -10.720437    -10.719730   1.000000   1.000000
   22      -10.662577    -10.664158   1.000000   1.000000
   23       -3.508557     -3.508584   1.000000   1.000000
   24       -3.500181     -3.500065   1.000000   1.000000
   25        0.611113      0.613451   1.000000   1.000000
   26        0.752960      0.754184   1.000000   1.000000
   27        0.836529      0.838163   1.000000   1.000000
   28        1.119195      1.120836   1.000000   1.000000
   29        1.236918      1.238347   1.000000   1.000000
   30        1.445305      1.445753   1.000000   1.000000
   31        1.743814      1.744492   1.000000   1.000000
   32        1.929515      1.931491   1.000000   1.000000
   33        2.199802      2.200802   1.000000   1.000000
   34        2.644981      2.645755   1.000000   1.000000
   35        2.851732      2.850975   1.000000   1.000000
   36        3.123442      3.124949   1.000000   1.000000
   37        3.433729      3.435570   1.000000   1.000000
   38        3.806666      3.805926   1.000000   1.000000
   39        4.076426      4.077423   1.000000   1.000000
   40        4.175943      4.175472   1.000000   1.000000
   41        4.256462      4.255552   1.000000   1.000000
   42        4.536564      4.536815   1.000000   1.000000
   43        4.586841      4.586573   1.000000   1.000000
   44        5.152940      5.152507   1.000000   1.000000
   45        5.373903      5.374983   1.000000   1.000000
   46        5.875303      5.876137   1.000000   1.000000
   47        6.047594      6.048794   1.000000   1.000000
   48        7.605676      7.602307   0.000000   0.000000
   49        7.697382      7.693939   0.000000   0.000000
   50        7.886230      7.883042   0.000000   0.000000
   51        8.798459      8.795380   0.000000   0.000000
   52        8.896704      8.893660   0.000000   0.000000
   53        9.773430      9.774327   0.000000   0.000000
   54        9.882035      9.880844   0.000000   0.000000
   55       11.049409     11.049365   0.000000   0.000000
   56       11.102841     11.102795   0.000000   0.000000
 
  0.5000000E+00  0.2173913E-01  0.0000000E+00  0.8333333E-02
    1      -50.027377    -50.022585   1.000000   1.000000
    2      -49.979916    -49.975429   1.000000   1.000000
    3      -49.979885    -49.975397   1.000000   1.000000
    4      -45.540753    -45.545474   1.000000   1.000000
    5      -45.501716    -45.506215   1.000000   1.000000
    6      -45.501689    -45.506186   1.000000   1.000000
    7      -16.246296    -16.245852   1.000000   1.000000
    8      -16.243725    -16.244420   1.000000   1.000000
    9      -16.232626    -16.231875   1.000000   1.000000
   10      -16.229407    -16.229942   1.000000   1.000000
   11      -16.188731    -16.188578   1.000000   1.000000
   12      -16.187451    -16.187618   1.000000   1.000000
   13      -16.177303    -16.177261   1.000000   1.000000
   14      -16.175784    -16.175810   1.000000   1.000000
   15      -16.165627    -16.165838   1.000000   1.000000
   16      -16.163921    -16.163678   1.000000   1.000000
   17      -11.834379    -11.833158   1.000000   1.000000
   18      -11.772894    -11.773790   1.000000   1.000000
   19      -10.852011    -10.850168   1.000000   1.000000
   20      -10.756694    -10.754766   1.000000   1.000000
   21      -10.718408    -10.722235   1.000000   1.000000
   22      -10.661704    -10.661778   1.000000   1.000000
   23       -3.520025     -3.519941   1.000000   1.000000
   24       -3.489084     -3.489088   1.000000   1.000000
   25        0.608268      0.609752   1.000000   1.000000
   26        0.755098      0.752693   1.000000   1.000000
   27        0.838204      0.842715   1.000000   1.000000
   28        1.119090      1.116297   1.000000   1.000000
   29        1.238450      1.242732   1.000000   1.000000
   30        1.442836      1.451836   1.000000   1.000000
   31        1.744110      1.741296   1.000000   1.000000
   32        1.922399      1.934125   1.000000   1.000000
   33        2.215413      2.203917   1.000000   1.000000
   34        2.644636      2.643010   1.000000   1.000000
   35        2.852959      2.853449   1.000000   1.000000
   36        3.123878      3.125516   1.000000   1.000000
   37        3.431908      3.433842   1.000000   1.000000
   38        3.803626      3.801217   1.000000   1.000000
   39        4.073220      4.077558   1.000000   1.000000
   40        4.178505      4.174166   1.000000   1.000000
   41        4.255221      4.256279   1.000000   1.000000
   42        4.534335      4.539254   1.000000   1.000000
   43        4.588368      4.587608   1.000000   1.000000
   44        5.155546      5.149891   1.000000   1.000000
   45        5.370313      5.377345   1.000000   1.000000
   46        5.873559      5.873999   1.000000   1.000000
   47        6.048043      6.046592   1.000000   1.000000
   48        7.606916      7.603007   0.000000   0.000000
   49        7.697646      7.694049   0.000000   0.000000
   50        7.885729      7.882611   0.000000   0.000000
   51        8.798356      8.792353   0.000000   0.000000
   52        8.896050      8.897551   0.000000   0.000000
   53        9.773377      9.775717   0.000000   0.000000
   54        9.883588      9.880612   0.000000   0.000000
   55       11.025182     11.022298   0.000000   0.000000
   56       11.124828     11.127323   0.000000   0.000000
 
  0.5000000E+00  0.4347826E-01  0.0000000E+00  0.8333333E-02
    1      -50.027376    -50.022585   1.000000   1.000000
    2      -49.979914    -49.975426   1.000000   1.000000
    3      -49.979881    -49.975395   1.000000   1.000000
    4      -45.540752    -45.545474   1.000000   1.000000
    5      -45.501712    -45.506212   1.000000   1.000000
    6      -45.501687    -45.506182   1.000000   1.000000
    7      -16.248284    -16.247659   1.000000   1.000000
    8      -16.243278    -16.244536   1.000000   1.000000
    9      -16.233107    -16.231472   1.000000   1.000000
   10      -16.227436    -16.228477   1.000000   1.000000
   11      -16.188961    -16.188546   1.000000   1.000000
   12      -16.187427    -16.187908   1.000000   1.000000
   13      -16.177260    -16.177307   1.000000   1.000000
   14      -16.175891    -16.175718   1.000000   1.000000
   15      -16.165714    -16.165977   1.000000   1.000000
   16      -16.163397    -16.163157   1.000000   1.000000
   17      -11.845413    -11.844248   1.000000   1.000000
   18      -11.757039    -11.757923   1.000000   1.000000
   19      -10.855253    -10.853959   1.000000   1.000000
   20      -10.765821    -10.756934   1.000000   1.000000
   21      -10.714698    -10.728206   1.000000   1.000000
   22      -10.659030    -10.655783   1.000000   1.000000
   23       -3.535343     -3.535193   1.000000   1.000000
   24       -3.474893     -3.474986   1.000000   1.000000
   25        0.600112      0.599184   1.000000   1.000000
   26        0.761197      0.749410   1.000000   1.000000
   27        0.843141      0.854308   1.000000   1.000000
   28        1.118686      1.106400   1.000000   1.000000
   29        1.243056      1.252708   1.000000   1.000000
   30        1.435703      1.469737   1.000000   1.000000
   31        1.744560      1.732493   1.000000   1.000000
   32        1.906779      1.941129   1.000000   1.000000
   33        2.256396      2.213293   1.000000   1.000000
   34        2.643470      2.635443   1.000000   1.000000
   35        2.856927      2.860110   1.000000   1.000000
   36        3.125220      3.127175   1.000000   1.000000
   37        3.426469      3.428960   1.000000   1.000000
   38        3.795083      3.788056   1.000000   1.000000
   39        4.063701      4.076303   1.000000   1.000000
   40        4.184930      4.171257   1.000000   1.000000
   41        4.252044      4.258586   1.000000   1.000000
   42        4.528915      4.545799   1.000000   1.000000
   43        4.592231      4.590950   1.000000   1.000000
   44        5.162857      5.142570   1.000000   1.000000
   45        5.359729      5.383951   1.000000   1.000000
   46        5.868482      5.867570   1.000000   1.000000
   47        6.049176      6.040091   1.000000   1.000000
   48        7.610579      7.605047   0.000000   0.000000
   49        7.698420      7.694404   0.000000   0.000000
   50        7.884240      7.881307   0.000000   0.000000
   51        8.797336      8.784196   0.000000   0.000000
   52        8.894891      8.908209   0.000000   0.000000
   53        9.772328      9.779692   0.000000   0.000000
   54        9.888849      9.879868   0.000000   0.000000
   55       10.985119     10.978546   0.000000   0.000000
   56       11.158598     11.163373   0.000000   0.000000
 
  0.5000000E+00  0.6521739E-01  0.0000000E+00  0.8333333E-02
    1      -50.027377    -50.022586   1.000000   1.000000
    2      -49.979914    -49.975425   1.000000   1.000000
    3      -49.979880    -49.975395   1.000000   1.000000
    4      -45.540753    -45.545474   1.000000   1.000000
    5      -45.501711    -45.506213   1.000000   1.000000
    6      -45.501688    -45.506182   1.000000   1.000000
    7      -16.250708    -16.250150   1.000000   1.000000
    8      -16.243188    -16.244663   1.000000   1.000000
    9      -16.233083    -16.230980   1.000000   1.000000
   10      -16.225239    -16.226471   1.000000   1.000000
   11      -16.189332    -16.188497   1.000000   1.000000
   12      -16.187390    -16.188364   1.000000   1.000000
   13      -16.177209    -16.177379   1.000000   1.000000
   14      -16.176051    -16.175600   1.000000   1.000000
   15      -16.165797    -16.166118   1.000000   1.000000
   16      -16.162623    -16.162396   1.000000   1.000000
   17      -11.857368    -11.856154   1.000000   1.000000
   18      -11.737157    -11.738163   1.000000   1.000000
   19      -10.860699    -10.860139   1.000000   1.000000
   20      -10.777493    -10.762134   1.000000   1.000000
   21      -10.712095    -10.734479   1.000000   1.000000
   22      -10.654533    -10.648062   1.000000   1.000000
   23       -3.551510     -3.551304   1.000000   1.000000
   24       -3.460600     -3.460784   1.000000   1.000000
   25        0.587522      0.583062   1.000000   1.000000
   26        0.770540      0.746092   1.000000   1.000000
   27        0.851123      0.869031   1.000000   1.000000
   28        1.117759      1.097576   1.000000   1.000000
   29        1.250671      1.263566   1.000000   1.000000
   30        1.424774      1.498127   1.000000   1.000000
   31        1.744062      1.719933   1.000000   1.000000
   32        1.892487      1.950403   1.000000   1.000000
   33        2.312253      2.228980   1.000000   1.000000
   34        2.641308      2.624656   1.000000   1.000000
   35        2.864416      2.869119   1.000000   1.000000
   36        3.127566      3.129733   1.000000   1.000000
   37        3.417506      3.421856   1.000000   1.000000
   38        3.782473      3.768725   1.000000   1.000000
   39        4.048432      4.070241   1.000000   1.000000
   40        4.190128      4.168521   1.000000   1.000000
   41        4.250071      4.263024   1.000000   1.000000
   42        4.522892      4.554291   1.000000   1.000000
   43        4.597177      4.597303   1.000000   1.000000
   44        5.173475      5.131881   1.000000   1.000000
   45        5.342736      5.393622   1.000000   1.000000
   46        5.860486      5.856857   1.000000   1.000000
   47        6.050413      6.029593   1.000000   1.000000
   48        7.616485      7.608273   0.000000   0.000000
   49        7.699676      7.695110   0.000000   0.000000
   50        7.881840      7.879123   0.000000   0.000000
   51        8.793429      8.772503   0.000000   0.000000
   52        8.895480      8.923707   0.000000   0.000000
   53        9.768162      9.785558   0.000000   0.000000
   54        9.899172      9.878661   0.000000   0.000000
   55       10.944016     10.934285   0.000000   0.000000
   56       11.188932     11.195571   0.000000   0.000000
 
  0.5000000E+00  0.8695652E-01  0.0000000E+00  0.8333333E-02
    1      -50.027378    -50.022587   1.000000   1.000000
    2      -49.979915    -49.975425   1.000000   1.000000
    3      -49.979881    -49.975396   1.000000   1.000000
    4      -45.540754    -45.545475   1.000000   1.000000
    5      -45.501711    -45.506214   1.000000   1.000000
    6      -45.501689    -45.506182   1.000000   1.000000
    7      -16.253414    -16.252973   1.000000   1.000000
    8      -16.243321    -16.244804   1.000000   1.000000
    9      -16.232652    -16.230376   1.000000   1.000000
   10      -16.222984    -16.224274   1.000000   1.000000
   11      -16.189818    -16.188960   1.000000   1.000000
   12      -16.187334    -16.188416   1.000000   1.000000
   13      -16.177157    -16.177469   1.000000   1.000000
   14      -16.176236    -16.175474   1.000000   1.000000
   15      -16.165853    -16.166225   1.000000   1.000000
   16      -16.161646    -16.161446   1.000000   1.000000
   17      -11.868568    -11.867255   1.000000   1.000000
   18      -11.714963    -11.716169   1.000000   1.000000
   19      -10.868368    -10.868432   1.000000   1.000000
   20      -10.790334    -10.771522   1.000000   1.000000
   21      -10.711485    -10.738778   1.000000   1.000000
   22      -10.648450    -10.639783   1.000000   1.000000
   23       -3.568465     -3.568211   1.000000   1.000000
   24       -3.446221     -3.446502   1.000000   1.000000
   25        0.571431      0.562901   1.000000   1.000000
   26        0.782386      0.743527   1.000000   1.000000
   27        0.861882      0.883785   1.000000   1.000000
   28        1.116107      1.094165   1.000000   1.000000
   29        1.260906      1.273465   1.000000   1.000000
   30        1.411580      1.534471   1.000000   1.000000
   31        1.741647      1.705757   1.000000   1.000000
   32        1.885907      1.959687   1.000000   1.000000
   33        2.374196      2.250948   1.000000   1.000000
   34        2.638614      2.612465   1.000000   1.000000
   35        2.876431      2.878366   1.000000   1.000000
   36        3.131097      3.132678   1.000000   1.000000
   37        3.405216      3.414161   1.000000   1.000000
   38        3.767475      3.745737   1.000000   1.000000
   39        4.028556      4.057413   1.000000   1.000000
   40        4.184916      4.166116   1.000000   1.000000
   41        4.256150      4.270479   1.000000   1.000000
   42        4.518624      4.562056   1.000000   1.000000
   43        4.602259      4.607330   1.000000   1.000000
   44        5.185361      5.119480   1.000000   1.000000
   45        5.320406      5.404954   1.000000   1.000000
   46        5.850121      5.841913   1.000000   1.000000
   47        6.050986      6.015555   1.000000   1.000000
   48        7.624374      7.612424   0.000000   0.000000
   49        7.701372      7.696361   0.000000   0.000000
   50        7.878660      7.876065   0.000000   0.000000
   51        8.784330      8.758317   0.000000   0.000000
   52        8.900500      8.942558   0.000000   0.000000
   53        9.758898      9.791594   0.000000   0.000000
   54        9.915428      9.877736   0.000000   0.000000
   55       10.905267     10.893267   0.000000   0.000000
   56       11.213139     11.220982   0.000000   0.000000
 
  0.5000000E+00  0.1086957E+00  0.0000000E+00  0.8333333E-02
    1      -50.027378    -50.022587   1.000000   1.000000
    2      -49.979916    -49.975427   1.000000   1.000000
    3      -49.979883    -49.975396   1.000000   1.000000
    4      -45.540754    -45.545476   1.000000   1.000000
    5      -45.501714    -45.506214   1.000000   1.000000
    6      -45.501689    -45.506185   1.000000   1.000000
    7      -16.256295    -16.255959   1.000000   1.000000
    8      -16.243567    -16.244952   1.000000   1.000000
    9      -16.231940    -16.229657   1.000000   1.000000
   10      -16.220776    -16.222075   1.000000   1.000000
   11      -16.190387    -16.189638   1.000000   1.000000
   12      -16.187263    -16.188320   1.000000   1.000000
   13      -16.177131    -16.177568   1.000000   1.000000
   14      -16.176405    -16.175357   1.000000   1.000000
   15      -16.165891    -16.166296   1.000000   1.000000
   16      -16.160501    -16.160333   1.000000   1.000000
   17      -11.878445    -11.877021   1.000000   1.000000
   18      -11.691122    -11.692572   1.000000   1.000000
   19      -10.878276    -10.878628   1.000000   1.000000
   20      -10.803741    -10.784321   1.000000   1.000000
   21      -10.712785    -10.741360   1.000000   1.000000
   22      -10.641323    -10.631544   1.000000   1.000000
   23       -3.586242     -3.585943   1.000000   1.000000
   24       -3.431689     -3.432071   1.000000   1.000000
   25        0.552599      0.539974   1.000000   1.000000
   26        0.796087      0.741982   1.000000   1.000000
   27        0.875178      0.897037   1.000000   1.000000
   28        1.113669      1.097554   1.000000   1.000000
   29        1.272597      1.282876   1.000000   1.000000
   30        1.398512      1.575122   1.000000   1.000000
   31        1.737656      1.692482   1.000000   1.000000
   32        1.888971      1.967171   1.000000   1.000000
   33        2.433819      2.278916   1.000000   1.000000
   34        2.638012      2.600462   1.000000   1.000000
   35        2.893820      2.886031   1.000000   1.000000
   36        3.136107      3.134981   1.000000   1.000000
   37        3.389956      3.408195   1.000000   1.000000
   38        3.751561      3.721197   1.000000   1.000000
   39        4.005509      4.038419   1.000000   1.000000
   40        4.166423      4.162601   1.000000   1.000000
   41        4.271491      4.281341   1.000000   1.000000
   42        4.517631      4.567633   1.000000   1.000000
   43        4.606770      4.620288   1.000000   1.000000
   44        5.195701      5.107004   1.000000   1.000000
   45        5.294750      5.416615   1.000000   1.000000
   46        5.837947      5.822915   1.000000   1.000000
   47        6.050078      5.998541   1.000000   1.000000
   48        7.633880      7.617116   0.000000   0.000000
   49        7.703462      7.698440   0.000000   0.000000
   50        7.874876      7.872141   0.000000   0.000000
   51        8.768990      8.742020   0.000000   0.000000
   52        8.911357      8.963810   0.000000   0.000000
   53        9.743658      9.794141   0.000000   0.000000
   54        9.937204      9.879576   0.000000   0.000000
   55       10.870806     10.857824   0.000000   0.000000
   56       11.230786     11.238423   0.000000   0.000000
 
  0.5000000E+00  0.1304348E+00  0.0000000E+00  0.8333333E-02
    1      -50.027378    -50.022587   1.000000   1.000000
    2      -49.979916    -49.975425   1.000000   1.000000
    3      -49.979881    -49.975396   1.000000   1.000000
    4      -45.540754    -45.545475   1.000000   1.000000
    5      -45.501712    -45.506214   1.000000   1.000000
    6      -45.501689    -45.506182   1.000000   1.000000
    7      -16.259256    -16.259003   1.000000   1.000000
    8      -16.243848    -16.245092   1.000000   1.000000
    9      -16.231043    -16.228838   1.000000   1.000000
   10      -16.218683    -16.219973   1.000000   1.000000
   11      -16.191011    -16.190368   1.000000   1.000000
   12      -16.187174    -16.188200   1.000000   1.000000
   13      -16.177170    -16.177671   1.000000   1.000000
   14      -16.176511    -16.175265   1.000000   1.000000
   15      -16.165893    -16.166314   1.000000   1.000000
   16      -16.159214    -16.159079   1.000000   1.000000
   17      -11.886737    -11.885221   1.000000   1.000000
   18      -11.666000    -11.667710   1.000000   1.000000
   19      -10.890385    -10.890510   1.000000   1.000000
   20      -10.817330    -10.799131   1.000000   1.000000
   21      -10.715559    -10.743247   1.000000   1.000000
   22      -10.633685    -10.623613   1.000000   1.000000
   23       -3.604841     -3.604505   1.000000   1.000000
   24       -3.416923     -3.417407   1.000000   1.000000
   25        0.531609      0.515215   1.000000   1.000000
   26        0.811056      0.741815   1.000000   1.000000
   27        0.890836      0.908726   1.000000   1.000000
   28        1.110599      1.106483   1.000000   1.000000
   29        1.283165      1.293217   1.000000   1.000000
   30        1.389187      1.613296   1.000000   1.000000
   31        1.733825      1.685668   1.000000   1.000000
   32        1.900585      1.971711   1.000000   1.000000
   33        2.479537      2.312248   1.000000   1.000000
   34        2.646817      2.589903   1.000000   1.000000
   35        2.916834      2.890804   1.000000   1.000000
   36        3.143145      3.135149   1.000000   1.000000
   37        3.372273      3.406690   1.000000   1.000000
   38        3.735838      3.696695   1.000000   1.000000
   39        3.980751      4.014774   1.000000   1.000000
   40        4.139104      4.157139   1.000000   1.000000
   41        4.291108      4.294865   1.000000   1.000000
   42        4.520533      4.571212   1.000000   1.000000
   43        4.610085      4.633891   1.000000   1.000000
   44        5.199340      5.095933   1.000000   1.000000
   45        5.270516      5.427401   1.000000   1.000000
   46        5.824464      5.800278   1.000000   1.000000
   47        6.046913      5.979119   1.000000   1.000000
   48        7.644561      7.621870   0.000000   0.000000
   49        7.705920      7.701710   0.000000   0.000000
   50        7.870715      7.867396   0.000000   0.000000
   51        8.747934      8.723604   0.000000   0.000000
   52        8.927793      8.986816   0.000000   0.000000
   53        9.722532      9.788172   0.000000   0.000000
   54        9.963158      9.888096   0.000000   0.000000
   55       10.841854     10.829553   0.000000   0.000000
   56       11.240662     11.247045   0.000000   0.000000
 
  0.5000000E+00  0.1521739E+00  0.0000000E+00  0.8333333E-02
    1      -50.027379    -50.022588   1.000000   1.000000
    2      -49.979916    -49.975424   1.000000   1.000000
    3      -49.979880    -49.975396   1.000000   1.000000
    4      -45.540755    -45.545476   1.000000   1.000000
    5      -45.501710    -45.506214   1.000000   1.000000
    6      -45.501689    -45.506181   1.000000   1.000000
    7      -16.262245    -16.262054   1.000000   1.000000
    8      -16.244129    -16.245223   1.000000   1.000000
    9      -16.230023    -16.227935   1.000000   1.000000
   10      -16.216753    -16.218026   1.000000   1.000000
   11      -16.191657    -16.191111   1.000000   1.000000
   12      -16.187073    -16.188062   1.000000   1.000000
   13      -16.177304    -16.177783   1.000000   1.000000
   14      -16.176537    -16.175214   1.000000   1.000000
   15      -16.165861    -16.166278   1.000000   1.000000
   16      -16.157831    -16.157726   1.000000   1.000000
   17      -11.893417    -11.891821   1.000000   1.000000
   18      -11.639845    -11.641826   1.000000   1.000000
   19      -10.904610    -10.903992   1.000000   1.000000
   20      -10.830956    -10.815060   1.000000   1.000000
   21      -10.719446    -10.745120   1.000000   1.000000
   22      -10.626028    -10.616199   1.000000   1.000000
   23       -3.624231     -3.623866   1.000000   1.000000
   24       -3.401892     -3.402472   1.000000   1.000000
   25        0.508920      0.489300   1.000000   1.000000
   26        0.826682      0.743605   1.000000   1.000000
   27        0.908701      0.919541   1.000000   1.000000
   28        1.107249      1.118073   1.000000   1.000000
   29        1.288561      1.306006   1.000000   1.000000
   30        1.388271      1.631806   1.000000   1.000000
   31        1.732187      1.701445   1.000000   1.000000
   32        1.918674      1.972919   1.000000   1.000000
   33        2.499148      2.349891   1.000000   1.000000
   34        2.673909      2.581708   1.000000   1.000000
   35        2.944534      2.891947   1.000000   1.000000
   36        3.153301      3.131781   1.000000   1.000000
   37        3.352907      3.411982   1.000000   1.000000
   38        3.721110      3.673446   1.000000   1.000000
   39        3.955623      3.987640   1.000000   1.000000
   40        4.106860      4.150225   1.000000   1.000000
   41        4.311562      4.309514   1.000000   1.000000
   42        4.527257      4.573510   1.000000   1.000000
   43        4.611630      4.645674   1.000000   1.000000
   44        5.186824      5.087502   1.000000   1.000000
   45        5.257240      5.436161   1.000000   1.000000
   46        5.810071      5.774755   1.000000   1.000000
   47        6.040827      5.957811   1.000000   1.000000
   48        7.655855      7.626168   0.000000   0.000000
   49        7.708752      7.706533   0.000000   0.000000
   50        7.866445      7.861896   0.000000   0.000000
   51        8.722250      8.702900   0.000000   0.000000
   52        8.948789      9.011033   0.000000   0.000000
   53        9.696071      9.771198   0.000000   0.000000
   54        9.991703      9.904965   0.000000   0.000000
   55       10.819070     10.809131   0.000000   0.000000
   56       11.244137     11.249520   0.000000   0.000000
 
  0.5000000E+00  0.1739130E+00  0.0000000E+00  0.8333333E-02
    1      -50.027378    -50.022587   1.000000   1.000000
    2      -49.979914    -49.975423   1.000000   1.000000
    3      -49.979879    -49.975395   1.000000   1.000000
    4      -45.540754    -45.545475   1.000000   1.000000
    5      -45.501709    -45.506212   1.000000   1.000000
    6      -45.501687    -45.506180   1.000000   1.000000
    7      -16.265212    -16.265069   1.000000   1.000000
    8      -16.244387    -16.245335   1.000000   1.000000
    9      -16.228920    -16.226963   1.000000   1.000000
   10      -16.215021    -16.216268   1.000000   1.000000
   11      -16.192294    -16.191837   1.000000   1.000000
   12      -16.186957    -16.187905   1.000000   1.000000
   13      -16.177497    -16.177902   1.000000   1.000000
   14      -16.176522    -16.175216   1.000000   1.000000
   15      -16.165792    -16.166187   1.000000   1.000000
   16      -16.156362    -16.156282   1.000000   1.000000
   17      -11.898436    -11.896776   1.000000   1.000000
   18      -11.612879    -11.615146   1.000000   1.000000
   19      -10.920720    -10.918943   1.000000   1.000000
   20      -10.844495    -10.831510   1.000000   1.000000
   21      -10.724114    -10.747239   1.000000   1.000000
   22      -10.618616    -10.609346   1.000000   1.000000
   23       -3.644313     -3.643927   1.000000   1.000000
   24       -3.386598     -3.387263   1.000000   1.000000
   25        0.484939      0.462797   1.000000   1.000000
   26        0.842366      0.748012   1.000000   1.000000
   27        0.928547      0.930115   1.000000   1.000000
   28        1.104137      1.129329   1.000000   1.000000
   29        1.286595      1.322216   1.000000   1.000000
   30        1.398097      1.629377   1.000000   1.000000
   31        1.734401      1.740162   1.000000   1.000000
   32        1.941387      1.971303   1.000000   1.000000
   33        2.494775      2.390381   1.000000   1.000000
   34        2.714857      2.576477   1.000000   1.000000
   35        2.973941      2.889281   1.000000   1.000000
   36        3.168590      3.124501   1.000000   1.000000
   37        3.332827      3.424942   1.000000   1.000000
   38        3.708003      3.652504   1.000000   1.000000
   39        3.931207      3.957641   1.000000   1.000000
   40        4.072655      4.143071   1.000000   1.000000
   41        4.331152      4.323619   1.000000   1.000000
   42        4.537250      4.575201   1.000000   1.000000
   43        4.610993      4.653803   1.000000   1.000000
   44        5.157437      5.082569   1.000000   1.000000
   45        5.256236      5.441684   1.000000   1.000000
   46        5.795066      5.747542   1.000000   1.000000
   47        6.031289      5.935045   1.000000   1.000000
   48        7.667038      7.629597   0.000000   0.000000
   49        7.712081      7.713135   0.000000   0.000000
   50        7.862375      7.855773   0.000000   0.000000
   51        8.692870      8.679735   0.000000   0.000000
   52        8.973324      9.036010   0.000000   0.000000
   53        9.665076      9.744407   0.000000   0.000000
   54       10.021435      9.928740   0.000000   0.000000
   55       10.802160     10.795949   0.000000   0.000000
   56       11.242159     11.243534   0.000000   0.000000
 