   10   10    1    2
  0.1285150E+02  0.5705305E-09  0.5705305E-09  0.5705305E-09  0.5000000E-15
  1.000000000000000E-004
  CAR 
 unknown system                          
     94    120     56
 
  0.5000000E+00  0.0000000E+00  0.0000000E+00  0.8333333E-02
    1      -50.597525    -50.592441   1.000000   1.000000
    2      -50.534163    -50.529376   1.000000   1.000000
    3      -50.534125    -50.529343   1.000000   1.000000
    4      -45.897051    -45.902058   1.000000   1.000000
    5      -45.849573    -45.854370   1.000000   1.000000
    6      -45.849545    -45.854339   1.000000   1.000000
    7      -16.158707    -16.158796   1.000000   1.000000
    8      -16.157818    -16.157780   1.000000   1.000000
    9      -16.145221    -16.145305   1.000000   1.000000
   10      -16.143853    -16.143750   1.000000   1.000000
   11      -16.100489    -16.100470   1.000000   1.000000
   12      -16.099457    -16.099478   1.000000   1.000000
   13      -16.088855    -16.088846   1.000000   1.000000
   14      -16.087575    -16.087600   1.000000   1.000000
   15      -16.077205    -16.077399   1.000000   1.000000
   16      -16.075935    -16.075690   1.000000   1.000000
   17      -11.774363    -11.773155   1.000000   1.000000
   18      -11.725457    -11.726322   1.000000   1.000000
   19      -10.798357    -10.796512   1.000000   1.000000
   20      -10.700745    -10.701886   1.000000   1.000000
   21      -10.661372    -10.660808   1.000000   1.000000
   22      -10.606484    -10.607791   1.000000   1.000000
   23       -3.455512     -3.455486   1.000000   1.000000
   24       -3.443406     -3.443256   1.000000   1.000000
   25       -0.039728     -0.036549   1.000000   1.000000
   26        0.002698      0.006130   1.000000   1.000000
   27        0.195113      0.198341   1.000000   1.000000
   28        0.287249      0.290969   1.000000   1.000000
   29        0.631009      0.634823   1.000000   1.000000
   30        1.133454      1.133553   1.000000   1.000000
   31        1.398834      1.399138   1.000000   1.000000
   32        1.747325      1.747475   1.000000   1.000000
   33        2.098267      2.098324   1.000000   1.000000
   34        2.501336      2.501479   1.000000   1.000000
   35        2.671148      2.671520   1.000000   1.000000
   36        2.895933      2.895733   1.000000   1.000000
   37        3.055074      3.055386   1.000000   1.000000
   38        3.750202      3.749598   1.000000   1.000000
   39        4.090737      4.091461   1.000000   1.000000
   40        4.234058      4.233683   1.000000   1.000000
   41        4.323219      4.322212   1.000000   1.000000
   42        4.553794      4.553888   1.000000   1.000000
   43        4.637071      4.636770   1.000000   1.000000
   44        5.187990      5.187855   1.000000   1.000000
   45        5.238895      5.240009   1.000000   1.000000
   46        5.577784      5.578240   1.000000   1.000000
   47        5.803500      5.804025   1.000000   1.000000
   48        8.008220      8.004533   0.000000   0.000000
   49        8.109016      8.105223   0.000000   0.000000
   50        8.276276      8.272614   0.000000   0.000000
   51        8.915201      8.911879   0.000000   0.000000
   52        9.003650      9.000350   0.000000   0.000000
   53        9.849481      9.850360   0.000000   0.000000
   54        9.980052      9.978792   0.000000   0.000000
   55       11.126377     11.126285   0.000000   0.000000
   56       11.189287     11.189301   0.000000   0.000000
 
  0.5000000E+00  0.2173913E-01  0.0000000E+00  0.8333333E-02
    1      -50.597525    -50.592440   1.000000   1.000000
    2      -50.534161    -50.529373   1.000000   1.000000
    3      -50.534121    -50.529341   1.000000   1.000000
    4      -45.897051    -45.902058   1.000000   1.000000
    5      -45.849569    -45.854368   1.000000   1.000000
    6      -45.849543    -45.854335   1.000000   1.000000
    7      -16.159863    -16.159431   1.000000   1.000000
    8      -16.157220    -16.157888   1.000000   1.000000
    9      -16.145843    -16.145143   1.000000   1.000000
   10      -16.142678    -16.143173   1.000000   1.000000
   11      -16.100564    -16.100454   1.000000   1.000000
   12      -16.099444    -16.099573   1.000000   1.000000
   13      -16.088833    -16.088864   1.000000   1.000000
   14      -16.087613    -16.087562   1.000000   1.000000
   15      -16.077277    -16.077482   1.000000   1.000000
   16      -16.075702    -16.075465   1.000000   1.000000
   17      -11.779761    -11.778516   1.000000   1.000000
   18      -11.718397    -11.719320   1.000000   1.000000
   19      -10.799335    -10.797802   1.000000   1.000000
   20      -10.703832    -10.701907   1.000000   1.000000
   21      -10.660130    -10.663916   1.000000   1.000000
   22      -10.605594    -10.605281   1.000000   1.000000
   23       -3.465876     -3.465660   1.000000   1.000000
   24       -3.433388     -3.433440   1.000000   1.000000
   25       -0.048127     -0.043489   1.000000   1.000000
   26        0.010405      0.011699   1.000000   1.000000
   27        0.194890      0.195548   1.000000   1.000000
   28        0.289406      0.294511   1.000000   1.000000
   29        0.630771      0.634640   1.000000   1.000000
   30        1.129628      1.133664   1.000000   1.000000
   31        1.402335      1.403273   1.000000   1.000000
   32        1.741043      1.748614   1.000000   1.000000
   33        2.109169      2.099595   1.000000   1.000000
   34        2.504711      2.502595   1.000000   1.000000
   35        2.671734      2.666074   1.000000   1.000000
   36        2.896353      2.895946   1.000000   1.000000
   37        3.055728      3.063114   1.000000   1.000000
   38        3.748359      3.745727   1.000000   1.000000
   39        4.086375      4.092454   1.000000   1.000000
   40        4.234628      4.227994   1.000000   1.000000
   41        4.322206      4.324150   1.000000   1.000000
   42        4.553033      4.555322   1.000000   1.000000
   43        4.637045      4.636828   1.000000   1.000000
   44        5.186684      5.175175   1.000000   1.000000
   45        5.237074      5.252608   1.000000   1.000000
   46        5.577600      5.576193   1.000000   1.000000
   47        5.804284      5.801955   1.000000   1.000000
   48        8.009677      8.005248   0.000000   0.000000
   49        8.109439      8.105500   0.000000   0.000000
   50        8.275840      8.272469   0.000000   0.000000
   51        8.914940      8.908360   0.000000   0.000000
   52        9.002647      9.004350   0.000000   0.000000
   53        9.849317      9.851851   0.000000   0.000000
   54        9.981510      9.978330   0.000000   0.000000
   55       11.104439     11.100511   0.000000   0.000000
   56       11.209149     11.212408   0.000000   0.000000
 
  0.5000000E+00  0.4347826E-01  0.0000000E+00  0.8333333E-02
    1      -50.597524    -50.592440   1.000000   1.000000
    2      -50.534159    -50.529370   1.000000   1.000000
    3      -50.534118    -50.529340   1.000000   1.000000
    4      -45.897050    -45.902057   1.000000   1.000000
    5      -45.849566    -45.854366   1.000000   1.000000
    6      -45.849541    -45.854331   1.000000   1.000000
    7      -16.161881    -16.161242   1.000000   1.000000
    8      -16.156799    -16.158029   1.000000   1.000000
    9      -16.146302    -16.144795   1.000000   1.000000
   10      -16.140672    -16.141624   1.000000   1.000000
   11      -16.100798    -16.100423   1.000000   1.000000
   12      -16.099420    -16.099860   1.000000   1.000000
   13      -16.088786    -16.088925   1.000000   1.000000
   14      -16.087733    -16.087473   1.000000   1.000000
   15      -16.077420    -16.077664   1.000000   1.000000
   16      -16.075118    -16.074892   1.000000   1.000000
   17      -11.791018    -11.789607   1.000000   1.000000
   18      -11.702339    -11.703486   1.000000   1.000000
   19      -10.802349    -10.801656   1.000000   1.000000
   20      -10.711748    -10.702272   1.000000   1.000000
   21      -10.657856    -10.671791   1.000000   1.000000
   22      -10.602940    -10.599114   1.000000   1.000000
   23       -3.481057     -3.480673   1.000000   1.000000
   24       -3.419269     -3.419526   1.000000   1.000000
   25       -0.065243     -0.058803   1.000000   1.000000
   26        0.025339      0.022922   1.000000   1.000000
   27        0.194453      0.188134   1.000000   1.000000
   28        0.295641      0.304268   1.000000   1.000000
   29        0.630051      0.634013   1.000000   1.000000
   30        1.118925      1.133947   1.000000   1.000000
   31        1.411827      1.415559   1.000000   1.000000
   32        1.725773      1.751934   1.000000   1.000000
   33        2.137874      2.103508   1.000000   1.000000
   34        2.515182      2.505601   1.000000   1.000000
   35        2.673600      2.651411   1.000000   1.000000
   36        2.897649      2.896414   1.000000   1.000000
   37        3.057720      3.085064   1.000000   1.000000
   38        3.743040      3.734656   1.000000   1.000000
   39        4.074066      4.094754   1.000000   1.000000
   40        4.234587      4.212554   1.000000   1.000000
   41        4.319897      4.328887   1.000000   1.000000
   42        4.551031      4.559219   1.000000   1.000000
   43        4.637167      4.637001   1.000000   1.000000
   44        5.180616      5.151478   1.000000   1.000000
   45        5.233733      5.275983   1.000000   1.000000
   46        5.576809      5.570139   1.000000   1.000000
   47        5.806592      5.795862   1.000000   1.000000
   48        8.013972      8.007338   0.000000   0.000000
   49        8.110686      8.106332   0.000000   0.000000
   50        8.274540      8.271992   0.000000   0.000000
   51        8.913482      8.899050   0.000000   0.000000
   52        9.000402      9.014999   0.000000   0.000000
   53        9.848015      9.856197   0.000000   0.000000
   54        9.986408      9.976813   0.000000   0.000000
   55       11.065853     11.056849   0.000000   0.000000
   56       11.241628     11.248538   0.000000   0.000000
 
  0.5000000E+00  0.6521739E-01  0.0000000E+00  0.8333333E-02
    1      -50.597525    -50.592441   1.000000   1.000000
    2      -50.534160    -50.529369   1.000000   1.000000
    3      -50.534117    -50.529340   1.000000   1.000000
    4      -45.897051    -45.902059   1.000000   1.000000
    5      -45.849565    -45.854367   1.000000   1.000000
    6      -45.849542    -45.854330   1.000000   1.000000
    7      -16.164352    -16.163760   1.000000   1.000000
    8      -16.156728    -16.158173   1.000000   1.000000
    9      -16.146251    -16.144319   1.000000   1.000000
   10      -16.138430    -16.139552   1.000000   1.000000
   11      -16.101175    -16.100393   1.000000   1.000000
   12      -16.099381    -16.100295   1.000000   1.000000
   13      -16.088726    -16.089018   1.000000   1.000000
   14      -16.087911    -16.087358   1.000000   1.000000
   15      -16.077549    -16.077843   1.000000   1.000000
   16      -16.074290    -16.074081   1.000000   1.000000
   17      -11.803169    -11.801521   1.000000   1.000000
   18      -11.682290    -11.683771   1.000000   1.000000
   19      -10.807436    -10.807895   1.000000   1.000000
   20      -10.722409    -10.703949   1.000000   1.000000
   21      -10.656523    -10.681517   1.000000   1.000000
   22      -10.598536    -10.591362   1.000000   1.000000
   23       -3.497247     -3.496719   1.000000   1.000000
   24       -3.404839     -3.405300   1.000000   1.000000
   25       -0.084853     -0.077440   1.000000   1.000000
   26        0.041021      0.034865   1.000000   1.000000
   27        0.194383      0.178078   1.000000   1.000000
   28        0.305382      0.318565   1.000000   1.000000
   29        0.628874      0.632775   1.000000   1.000000
   30        1.103178      1.134252   1.000000   1.000000
   31        1.424815      1.435657   1.000000   1.000000
   32        1.708936      1.757174   1.000000   1.000000
   33        2.175769      2.110343   1.000000   1.000000
   34        2.533676      2.509255   1.000000   1.000000
   35        2.677161      2.631729   1.000000   1.000000
   36        2.899949      2.896897   1.000000   1.000000
   37        3.061136      3.118341   1.000000   1.000000
   38        3.734848      3.717800   1.000000   1.000000
   39        4.055522      4.096558   1.000000   1.000000
   40        4.229540      4.190461   1.000000   1.000000
   41        4.318461      4.334863   1.000000   1.000000
   42        4.548633      4.564475   1.000000   1.000000
   43        4.637781      4.637316   1.000000   1.000000
   44        5.165629      5.126385   1.000000   1.000000
   45        5.233000      5.300225   1.000000   1.000000
   46        5.574835      5.560447   1.000000   1.000000
   47        5.810269      5.786084   1.000000   1.000000
   48        8.020902      8.010680   0.000000   0.000000
   49        8.112724      8.107763   0.000000   0.000000
   50        8.272446      8.271132   0.000000   0.000000
   51        8.908915      8.886020   0.000000   0.000000
   52        8.999170      9.029958   0.000000   0.000000
   53        9.843636      9.862958   0.000000   0.000000
   54        9.995976      9.974046   0.000000   0.000000
   55       11.025738     11.012173   0.000000   0.000000
   56       11.271756     11.280988   0.000000   0.000000
 
  0.5000000E+00  0.8695652E-01  0.0000000E+00  0.8333333E-02
    1      -50.597526    -50.592442   1.000000   1.000000
    2      -50.534161    -50.529369   1.000000   1.000000
    3      -50.534117    -50.529341   1.000000   1.000000
    4      -45.897052    -45.902059   1.000000   1.000000
    5      -45.849564    -45.854368   1.000000   1.000000
    6      -45.849543    -45.854330   1.000000   1.000000
    7      -16.167113    -16.166624   1.000000   1.000000
    8      -16.156875    -16.158328   1.000000   1.000000
    9      -16.145796    -16.143709   1.000000   1.000000
   10      -16.136122    -16.137294   1.000000   1.000000
   11      -16.101669    -16.100913   1.000000   1.000000
   12      -16.099322    -16.100286   1.000000   1.000000
   13      -16.088663    -16.089131   1.000000   1.000000
   14      -16.088116    -16.087233   1.000000   1.000000
   15      -16.077642    -16.077982   1.000000   1.000000
   16      -16.073267    -16.073083   1.000000   1.000000
   17      -11.814549    -11.812635   1.000000   1.000000
   18      -11.659941    -11.661822   1.000000   1.000000
   19      -10.814636    -10.816219   1.000000   1.000000
   20      -10.734464    -10.709537   1.000000   1.000000
   21      -10.656925    -10.689380   1.000000   1.000000
   22      -10.592661    -10.583204   1.000000   1.000000
   23       -3.514253     -3.513599   1.000000   1.000000
   24       -3.390249     -3.390916   1.000000   1.000000
   25       -0.105367     -0.097773   1.000000   1.000000
   26        0.055523      0.046009   1.000000   1.000000
   27        0.195307      0.167269   1.000000   1.000000
   28        0.317970      0.335981   1.000000   1.000000
   29        0.627259      0.630738   1.000000   1.000000
   30        1.084449      1.134366   1.000000   1.000000
   31        1.438307      1.463056   1.000000   1.000000
   32        1.697338      1.763939   1.000000   1.000000
   33        2.214329      2.120490   1.000000   1.000000
   34        2.561029      2.510577   1.000000   1.000000
   35        2.683354      2.612900   1.000000   1.000000
   36        2.903483      2.897374   1.000000   1.000000
   37        3.066100      3.159793   1.000000   1.000000
   38        3.724679      3.696968   1.000000   1.000000
   39        4.032437      4.095279   1.000000   1.000000
   40        4.215233      4.164715   1.000000   1.000000
   41        4.320150      4.341453   1.000000   1.000000
   42        4.547026      4.569562   1.000000   1.000000
   43        4.638925      4.637866   1.000000   1.000000
   44        5.140961      5.102392   1.000000   1.000000
   45        5.235676      5.322117   1.000000   1.000000
   46        5.571062      5.548012   1.000000   1.000000
   47        5.814981      5.773120   1.000000   1.000000
   48        8.030161      8.015071   0.000000   0.000000
   49        8.115499      8.109872   0.000000   0.000000
   50        8.269683      8.269813   0.000000   0.000000
   51        8.898917      8.870527   0.000000   0.000000
   52        9.001729      9.047607   0.000000   0.000000
   53        9.834210      9.870951   0.000000   0.000000
   54       10.011156      9.970245   0.000000   0.000000
   55       10.987778     10.970755   0.000000   0.000000
   56       11.296337     11.306842   0.000000   0.000000
 
  0.5000000E+00  0.1086957E+00  0.0000000E+00  0.8333333E-02
    1      -50.597527    -50.592443   1.000000   1.000000
    2      -50.534162    -50.529371   1.000000   1.000000
    3      -50.534119    -50.529342   1.000000   1.000000
    4      -45.897053    -45.902060   1.000000   1.000000
    5      -45.849567    -45.854369   1.000000   1.000000
    6      -45.849544    -45.854332   1.000000   1.000000
    7      -16.170050    -16.169658   1.000000   1.000000
    8      -16.157131    -16.158490   1.000000   1.000000
    9      -16.145064    -16.142978   1.000000   1.000000
   10      -16.133855    -16.135035   1.000000   1.000000
   11      -16.102253    -16.101596   1.000000   1.000000
   12      -16.099247    -16.100189   1.000000   1.000000
   13      -16.088655    -16.089256   1.000000   1.000000
   14      -16.088279    -16.087117   1.000000   1.000000
   15      -16.077709    -16.078082   1.000000   1.000000
   16      -16.072083    -16.071927   1.000000   1.000000
   17      -11.824602    -11.822430   1.000000   1.000000
   18      -11.635965    -11.638280   1.000000   1.000000
   19      -10.824010    -10.826421   1.000000   1.000000
   20      -10.747241    -10.720808   1.000000   1.000000
   21      -10.659048    -10.693162   1.000000   1.000000
   22      -10.585860    -10.575213   1.000000   1.000000
   23       -3.532079     -3.531318   1.000000   1.000000
   24       -3.375463     -3.376333   1.000000   1.000000
   25       -0.126286     -0.119189   1.000000   1.000000
   26        0.068046      0.055768   1.000000   1.000000
   27        0.197665      0.157356   1.000000   1.000000
   28        0.332751      0.355403   1.000000   1.000000
   29        0.625229      0.627785   1.000000   1.000000
   30        1.064555      1.134036   1.000000   1.000000
   31        1.449874      1.497107   1.000000   1.000000
   32        1.695563      1.771759   1.000000   1.000000
   33        2.247214      2.134305   1.000000   1.000000
   34        2.596058      2.504335   1.000000   1.000000
   35        2.694389      2.602260   1.000000   1.000000
   36        2.908647      2.898003   1.000000   1.000000
   37        3.072749      3.206723   1.000000   1.000000
   38        3.713611      3.674006   1.000000   1.000000
   39        4.006170      4.087188   1.000000   1.000000
   40        4.190722      4.139116   1.000000   1.000000
   41        4.324932      4.348498   1.000000   1.000000
   42        4.547264      4.572904   1.000000   1.000000
   43        4.640173      4.638790   1.000000   1.000000
   44        5.108836      5.080693   1.000000   1.000000
   45        5.239748      5.338862   1.000000   1.000000
   46        5.565067      5.534738   1.000000   1.000000
   47        5.820164      5.757544   1.000000   1.000000
   48        8.041340      8.020230   0.000000   0.000000
   49        8.118923      8.112769   0.000000   0.000000
   50        8.266414      8.267935   0.000000   0.000000
   51        8.882420      8.853041   0.000000   0.000000
   52        9.009612      9.066990   0.000000   0.000000
   53        9.818705      9.877176   0.000000   0.000000
   54       10.031778      9.967253   0.000000   0.000000
   55       10.954005     10.935091   0.000000   0.000000
   56       11.315341     11.324889   0.000000   0.000000
 
  0.5000000E+00  0.1304348E+00  0.0000000E+00  0.8333333E-02
    1      -50.597526    -50.592442   1.000000   1.000000
    2      -50.534162    -50.529369   1.000000   1.000000
    3      -50.534116    -50.529342   1.000000   1.000000
    4      -45.897052    -45.902059   1.000000   1.000000
    5      -45.849564    -45.854369   1.000000   1.000000
    6      -45.849544    -45.854329   1.000000   1.000000
    7      -16.173066    -16.172751   1.000000   1.000000
    8      -16.157420    -16.158644   1.000000   1.000000
    9      -16.144149    -16.142139   1.000000   1.000000
   10      -16.131696    -16.132867   1.000000   1.000000
   11      -16.102893    -16.102334   1.000000   1.000000
   12      -16.099151    -16.100065   1.000000   1.000000
   13      -16.088789    -16.089383   1.000000   1.000000
   14      -16.088299    -16.087020   1.000000   1.000000
   15      -16.077736    -16.078125   1.000000   1.000000
   16      -16.070760    -16.070632   1.000000   1.000000
   17      -11.833056    -11.830668   1.000000   1.000000
   18      -11.610717    -11.613467   1.000000   1.000000
   19      -10.835547    -10.838236   1.000000   1.000000
   20      -10.760289    -10.735348   1.000000   1.000000
   21      -10.662494    -10.694939   1.000000   1.000000
   22      -10.578606    -10.567605   1.000000   1.000000
   23       -3.550716     -3.549869   1.000000   1.000000
   24       -3.360410     -3.361473   1.000000   1.000000
   25       -0.147395     -0.141354   1.000000   1.000000
   26        0.078268      0.063705   1.000000   1.000000
   27        0.201595      0.149860   1.000000   1.000000
   28        0.349078      0.375853   1.000000   1.000000
   29        0.622824      0.623939   1.000000   1.000000
   30        1.044989      1.133024   1.000000   1.000000
   31        1.458751      1.537072   1.000000   1.000000
   32        1.705441      1.780209   1.000000   1.000000
   33        2.271149      2.151966   1.000000   1.000000
   34        2.632297      2.487589   1.000000   1.000000
   35        2.715465      2.604169   1.000000   1.000000
   36        2.916125      2.899031   1.000000   1.000000
   37        3.081222      3.256846   1.000000   1.000000
   38        3.702812      3.650704   1.000000   1.000000
   39        3.977811      4.067481   1.000000   1.000000
   40        4.157895      4.118853   1.000000   1.000000
   41        4.331086      4.355606   1.000000   1.000000
   42        4.549856      4.573385   1.000000   1.000000
   43        4.640784      4.640088   1.000000   1.000000
   44        5.071493      5.062148   1.000000   1.000000
   45        5.243492      5.346643   1.000000   1.000000
   46        5.556713      5.524043   1.000000   1.000000
   47        5.825063      5.739914   1.000000   1.000000
   48        8.053960      8.025822   0.000000   0.000000
   49        8.122888      8.116599   0.000000   0.000000
   50        8.262875      8.265424   0.000000   0.000000
   51        8.860014      8.833637   0.000000   0.000000
   52        9.022638      9.087521   0.000000   0.000000
   53        9.797120      9.875761   0.000000   0.000000
   54       10.056700      9.969882   0.000000   0.000000
   55       10.925470     10.906859   0.000000   0.000000
   56       11.324897     11.333962   0.000000   0.000000
 
  0.5000000E+00  0.1521739E+00  0.0000000E+00  0.8333333E-02
    1      -50.597527    -50.592443   1.000000   1.000000
    2      -50.534161    -50.529367   1.000000   1.000000
    3      -50.534115    -50.529341   1.000000   1.000000
    4      -45.897054    -45.902060   1.000000   1.000000
    5      -45.849562    -45.854369   1.000000   1.000000
    6      -45.849544    -45.854328   1.000000   1.000000
    7      -16.176110    -16.175856   1.000000   1.000000
    8      -16.157709    -16.158787   1.000000   1.000000
    9      -16.143114    -16.141215   1.000000   1.000000
   10      -16.129698    -16.130852   1.000000   1.000000
   11      -16.103563    -16.103094   1.000000   1.000000
   12      -16.099043    -16.099924   1.000000   1.000000
   13      -16.089015    -16.089519   1.000000   1.000000
   14      -16.088242    -16.086963   1.000000   1.000000
   15      -16.077729    -16.078118   1.000000   1.000000
   16      -16.069340    -16.069239   1.000000   1.000000
   17      -11.839902    -11.837336   1.000000   1.000000
   18      -11.584454    -11.587632   1.000000   1.000000
   19      -10.849217    -10.851564   1.000000   1.000000
   20      -10.773435    -10.751324   1.000000   1.000000
   21      -10.666933    -10.696404   1.000000   1.000000
   22      -10.571380    -10.560578   1.000000   1.000000
   23       -3.570129     -3.569220   1.000000   1.000000
   24       -3.345061     -3.346298   1.000000   1.000000
   25       -0.168588     -0.164032   1.000000   1.000000
   26        0.086221      0.069442   1.000000   1.000000
   27        0.206919      0.146066   1.000000   1.000000
   28        0.366223      0.396338   1.000000   1.000000
   29        0.620116      0.619402   1.000000   1.000000
   30        1.026934      1.131130   1.000000   1.000000
   31        1.466202      1.582087   1.000000   1.000000
   32        1.726122      1.789044   1.000000   1.000000
   33        2.285740      2.173268   1.000000   1.000000
   34        2.659836      2.464004   1.000000   1.000000
   35        2.752192      2.615980   1.000000   1.000000
   36        2.927169      2.900724   1.000000   1.000000
   37        3.091656      3.307878   1.000000   1.000000
   38        3.693444      3.628927   1.000000   1.000000
   39        3.948325      4.036639   1.000000   1.000000
   40        4.119348      4.104346   1.000000   1.000000
   41        4.337079      4.361846   1.000000   1.000000
   42        4.554693      4.570770   1.000000   1.000000
   43        4.639905      4.641444   1.000000   1.000000
   44        5.030712      5.047377   1.000000   1.000000
   45        5.246007      5.341298   1.000000   1.000000
   46        5.546092      5.520005   1.000000   1.000000
   47        5.828825      5.720707   1.000000   1.000000
   48        8.067450      8.031464   0.000000   0.000000
   49        8.127268      8.121505   0.000000   0.000000
   50        8.259326      8.262214   0.000000   0.000000
   51        8.832838      8.812218   0.000000   0.000000
   52        9.039894      9.108712   0.000000   0.000000
   53        9.770045      9.861492   0.000000   0.000000
   54       10.084379      9.982608   0.000000   0.000000
   55       10.902892     10.886643   0.000000   0.000000
   56       11.329380     11.335281   0.000000   0.000000
 
  0.5000000E+00  0.1739130E+00  0.0000000E+00  0.8333333E-02
    1      -50.597527    -50.592443   1.000000   1.000000
    2      -50.534160    -50.529367   1.000000   1.000000
    3      -50.534115    -50.529341   1.000000   1.000000
    4      -45.897053    -45.902059   1.000000   1.000000
    5      -45.849561    -45.854368   1.000000   1.000000
    6      -45.849543    -45.854327   1.000000   1.000000
    7      -16.179131    -16.178924   1.000000   1.000000
    8      -16.157976    -16.158911   1.000000   1.000000
    9      -16.141997    -16.140224   1.000000   1.000000
   10      -16.127895    -16.129024   1.000000   1.000000
   11      -16.104233    -16.103846   1.000000   1.000000
   12      -16.098921    -16.099764   1.000000   1.000000
   13      -16.089261    -16.089660   1.000000   1.000000
   14      -16.088184    -16.086955   1.000000   1.000000
   15      -16.077682    -16.078053   1.000000   1.000000
   16      -16.067843    -16.067763   1.000000   1.000000
   17      -11.845086    -11.842383   1.000000   1.000000
   18      -11.557393    -11.560996   1.000000   1.000000
   19      -10.864814    -10.866264   1.000000   1.000000
   20      -10.786548    -10.767922   1.000000   1.000000
   21      -10.672068    -10.698079   1.000000   1.000000
   22      -10.564410    -10.554160   1.000000   1.000000
   23       -3.590219     -3.589272   1.000000   1.000000
   24       -3.329425     -3.330808   1.000000   1.000000
   25       -0.189771     -0.186974   1.000000   1.000000
   26        0.092223      0.072976   1.000000   1.000000
   27        0.213252      0.146645   1.000000   1.000000
   28        0.383314      0.415796   1.000000   1.000000
   29        0.617298      0.614606   1.000000   1.000000
   30        1.011327      1.128230   1.000000   1.000000
   31        1.474564      1.631060   1.000000   1.000000
   32        1.755283      1.798441   1.000000   1.000000
   33        2.292243      2.197459   1.000000   1.000000
   34        2.678319      2.438461   1.000000   1.000000
   35        2.798024      2.633771   1.000000   1.000000
   36        2.944025      2.903361   1.000000   1.000000
   37        3.104258      3.356949   1.000000   1.000000
   38        3.686537      3.611010   1.000000   1.000000
   39        3.918672      3.999707   1.000000   1.000000
   40        4.077580      4.091882   1.000000   1.000000
   41        4.342099      4.365812   1.000000   1.000000
   42        4.561190      4.565725   1.000000   1.000000
   43        4.636742      4.642384   1.000000   1.000000
   44        4.988075      5.036695   1.000000   1.000000
   45        5.247006      5.321526   1.000000   1.000000
   46        5.533434      5.524124   1.000000   1.000000
   47        5.830628      5.700314   1.000000   1.000000
   48        8.081121      8.036796   0.000000   0.000000
   49        8.131991      8.127581   0.000000   0.000000
   50        8.256102      8.258306   0.000000   0.000000
   51        8.801853      8.788696   0.000000   0.000000
   52        9.060483      9.130182   0.000000   0.000000
   53        9.738387      9.835089   0.000000   0.000000
   54       10.113363     10.004570   0.000000   0.000000
   55       10.885942     10.873828   0.000000   0.000000
   56       11.328328     11.330989   0.000000   0.000000
 