   10   10    1    2
  0.1277187E+02  0.5687457E-09  0.5687457E-09  0.5687457E-09  0.5000000E-15
  1.000000000000000E-004
  CAR 
 unknown system                          
     94    120     56
 
  0.5000000E+00  0.0000000E+00  0.0000000E+00  0.8333333E-02
    1      -49.560348    -49.555335   1.000000   1.000000
    2      -49.518295    -49.513584   1.000000   1.000000
    3      -49.518256    -49.513543   1.000000   1.000000
    4      -45.265860    -45.270799   1.000000   1.000000
    5      -45.222926    -45.227647   1.000000   1.000000
    6      -45.222889    -45.227613   1.000000   1.000000
    7      -16.186020    -16.186135   1.000000   1.000000
    8      -16.184897    -16.184876   1.000000   1.000000
    9      -16.172259    -16.172317   1.000000   1.000000
   10      -16.170363    -16.170248   1.000000   1.000000
   11      -16.121348    -16.121272   1.000000   1.000000
   12      -16.119934    -16.120008   1.000000   1.000000
   13      -16.109859    -16.109781   1.000000   1.000000
   14      -16.108197    -16.108311   1.000000   1.000000
   15      -16.097582    -16.097838   1.000000   1.000000
   16      -16.095661    -16.095331   1.000000   1.000000
   17      -11.847905    -11.846557   1.000000   1.000000
   18      -11.782452    -11.783392   1.000000   1.000000
   19      -10.867495    -10.865399   1.000000   1.000000
   20      -10.744334    -10.744900   1.000000   1.000000
   21      -10.718379    -10.718541   1.000000   1.000000
   22      -10.645684    -10.647308   1.000000   1.000000
   23       -3.462336     -3.462335   1.000000   1.000000
   24       -3.452420     -3.452339   1.000000   1.000000
   25        0.791802      0.793746   1.000000   1.000000
   26        0.910158      0.909640   1.000000   1.000000
   27        1.110029      1.111889   1.000000   1.000000
   28        1.305474      1.306024   1.000000   1.000000
   29        1.461329      1.463263   1.000000   1.000000
   30        1.685077      1.684556   1.000000   1.000000
   31        1.974643      1.976188   1.000000   1.000000
   32        2.230910      2.231171   1.000000   1.000000
   33        2.428321      2.429799   1.000000   1.000000
   34        2.824079      2.824994   1.000000   1.000000
   35        2.954440      2.954943   1.000000   1.000000
   36        3.568258      3.570041   1.000000   1.000000
   37        3.849038      3.849207   1.000000   1.000000
   38        3.899243      3.900784   1.000000   1.000000
   39        4.101823      4.102719   1.000000   1.000000
   40        4.243689      4.243023   1.000000   1.000000
   41        4.285564      4.285127   1.000000   1.000000
   42        4.616336      4.616196   1.000000   1.000000
   43        4.698567      4.699334   1.000000   1.000000
   44        5.254660      5.254261   1.000000   1.000000
   45        5.535405      5.536423   1.000000   1.000000
   46        6.104142      6.105205   1.000000   1.000000
   47        6.326904      6.328517   1.000000   1.000000
   48        7.586063      7.582739   0.000000   0.000000
   49        7.663682      7.660304   0.000000   0.000000
   50        7.907987      7.905067   0.000000   0.000000
   51        8.836520      8.833289   0.000000   0.000000
   52        8.958755      8.955607   0.000000   0.000000
   53        9.910354      9.911381   0.000000   0.000000
   54       10.001887     10.000577   0.000000   0.000000
   55       11.159090     11.159027   0.000000   0.000000
   56       11.207449     11.207363   0.000000   0.000000
 
  0.5000000E+00  0.2173913E-01  0.0000000E+00  0.8333333E-02
    1      -49.560347    -49.555334   1.000000   1.000000
    2      -49.518297    -49.513584   1.000000   1.000000
    3      -49.518256    -49.513545   1.000000   1.000000
    4      -45.265858    -45.270797   1.000000   1.000000
    5      -45.222926    -45.227649   1.000000   1.000000
    6      -45.222890    -45.227613   1.000000   1.000000
    7      -16.187284    -16.186651   1.000000   1.000000
    8      -16.184224    -16.185253   1.000000   1.000000
    9      -16.172949    -16.171911   1.000000   1.000000
   10      -16.169079    -16.169763   1.000000   1.000000
   11      -16.121440    -16.121262   1.000000   1.000000
   12      -16.119926    -16.120127   1.000000   1.000000
   13      -16.109854    -16.109795   1.000000   1.000000
   14      -16.108225    -16.108272   1.000000   1.000000
   15      -16.097559    -16.097846   1.000000   1.000000
   16      -16.095541    -16.095202   1.000000   1.000000
   17      -11.851938    -11.850654   1.000000   1.000000
   18      -11.776787    -11.777680   1.000000   1.000000
   19      -10.868610    -10.866574   1.000000   1.000000
   20      -10.749399    -10.746231   1.000000   1.000000
   21      -10.714887    -10.720058   1.000000   1.000000
   22      -10.645068    -10.645338   1.000000   1.000000
   23       -3.473504     -3.473465   1.000000   1.000000
   24       -3.441629     -3.441589   1.000000   1.000000
   25        0.790463      0.790920   1.000000   1.000000
   26        0.911186      0.909464   1.000000   1.000000
   27        1.110797      1.116418   1.000000   1.000000
   28        1.305597      1.300276   1.000000   1.000000
   29        1.464088      1.469454   1.000000   1.000000
   30        1.684769      1.688207   1.000000   1.000000
   31        1.967652      1.973725   1.000000   1.000000
   32        2.235561      2.232877   1.000000   1.000000
   33        2.437128      2.434880   1.000000   1.000000
   34        2.824121      2.818431   1.000000   1.000000
   35        2.954479      2.961097   1.000000   1.000000
   36        3.566956      3.566925   1.000000   1.000000
   37        3.841362      3.837302   1.000000   1.000000
   38        3.898902      3.903743   1.000000   1.000000
   39        4.101972      4.104454   1.000000   1.000000
   40        4.244515      4.233739   1.000000   1.000000
   41        4.285961      4.295088   1.000000   1.000000
   42        4.613925      4.616518   1.000000   1.000000
   43        4.702020      4.703393   1.000000   1.000000
   44        5.256973      5.253232   1.000000   1.000000
   45        5.532023      5.537014   1.000000   1.000000
   46        6.103479      6.104148   1.000000   1.000000
   47        6.326978      6.326689   1.000000   1.000000
   48        7.586793      7.583183   0.000000   0.000000
   49        7.663883      7.660486   0.000000   0.000000
   50        7.907206      7.903926   0.000000   0.000000
   51        8.837196      8.830435   0.000000   0.000000
   52        8.957778      8.959523   0.000000   0.000000
   53        9.909641      9.912545   0.000000   0.000000
   54       10.003420     10.000025   0.000000   0.000000
   55       11.132463     11.129719   0.000000   0.000000
   56       11.231984     11.236059   0.000000   0.000000
 
  0.5000000E+00  0.4347826E-01  0.0000000E+00  0.8333333E-02
    1      -49.560347    -49.555334   1.000000   1.000000
    2      -49.518295    -49.513580   1.000000   1.000000
    3      -49.518253    -49.513543   1.000000   1.000000
    4      -45.265858    -45.270797   1.000000   1.000000
    5      -45.222923    -45.227647   1.000000   1.000000
    6      -45.222889    -45.227609   1.000000   1.000000
    7      -16.189487    -16.188574   1.000000   1.000000
    8      -16.183729    -16.185588   1.000000   1.000000
    9      -16.173517    -16.171251   1.000000   1.000000
   10      -16.166820    -16.168186   1.000000   1.000000
   11      -16.121705    -16.121232   1.000000   1.000000
   12      -16.119900    -16.120462   1.000000   1.000000
   13      -16.109835    -16.109821   1.000000   1.000000
   14      -16.108295    -16.108167   1.000000   1.000000
   15      -16.097506    -16.097861   1.000000   1.000000
   16      -16.095176    -16.094824   1.000000   1.000000
   17      -11.861196    -11.859972   1.000000   1.000000
   18      -11.762609    -11.763493   1.000000   1.000000
   19      -10.871923    -10.870052   1.000000   1.000000
   20      -10.760328    -10.750733   1.000000   1.000000
   21      -10.708780    -10.723411   1.000000   1.000000
   22      -10.643113    -10.640129   1.000000   1.000000
   23       -3.488959     -3.488903   1.000000   1.000000
   24       -3.427285     -3.427273   1.000000   1.000000
   25        0.786379      0.782670   1.000000   1.000000
   26        0.914319      0.909405   1.000000   1.000000
   27        1.113208      1.129173   1.000000   1.000000
   28        1.306014      1.286063   1.000000   1.000000
   29        1.472211      1.485125   1.000000   1.000000
   30        1.683549      1.698902   1.000000   1.000000
   31        1.950331      1.966974   1.000000   1.000000
   32        2.246202      2.237844   1.000000   1.000000
   33        2.463243      2.449586   1.000000   1.000000
   34        2.823979      2.801712   1.000000   1.000000
   35        2.954938      2.976712   1.000000   1.000000
   36        3.563193      3.557655   1.000000   1.000000
   37        3.820544      3.809509   1.000000   1.000000
   38        3.897141      3.906054   1.000000   1.000000
   39        4.100509      4.107353   1.000000   1.000000
   40        4.244875      4.219008   1.000000   1.000000
   41        4.289863      4.313189   1.000000   1.000000
   42        4.608656      4.617645   1.000000   1.000000
   43        4.710503      4.715011   1.000000   1.000000
   44        5.263628      5.250327   1.000000   1.000000
   45        5.522052      5.538675   1.000000   1.000000
   46        6.101524      6.100977   1.000000   1.000000
   47        6.327089      6.321275   1.000000   1.000000
   48        7.588976      7.584472   0.000000   0.000000
   49        7.664439      7.661070   0.000000   0.000000
   50        7.904895      7.900538   0.000000   0.000000
   51        8.838699      8.822642   0.000000   0.000000
   52        8.955451      8.970386   0.000000   0.000000
   53        9.906685      9.915819   0.000000   0.000000
   54       10.008635      9.998400   0.000000   0.000000
   55       11.090642     11.084578   0.000000   0.000000
   56       11.267938     11.273077   0.000000   0.000000
 
  0.5000000E+00  0.6521739E-01  0.0000000E+00  0.8333333E-02
    1      -49.560346    -49.555333   1.000000   1.000000
    2      -49.518294    -49.513579   1.000000   1.000000
    3      -49.518251    -49.513542   1.000000   1.000000
    4      -45.265857    -45.270796   1.000000   1.000000
    5      -45.222921    -45.227646   1.000000   1.000000
    6      -45.222887    -45.227608   1.000000   1.000000
    7      -16.192146    -16.191352   1.000000   1.000000
    8      -16.183672    -16.185797   1.000000   1.000000
    9      -16.173483    -16.170629   1.000000   1.000000
   10      -16.164287    -16.165866   1.000000   1.000000
   11      -16.122128    -16.121209   1.000000   1.000000
   12      -16.119857    -16.120960   1.000000   1.000000
   13      -16.109818    -16.109862   1.000000   1.000000
   14      -16.108396    -16.108032   1.000000   1.000000
   15      -16.097449    -16.097870   1.000000   1.000000
   16      -16.094559    -16.094217   1.000000   1.000000
   17      -11.871887    -11.870662   1.000000   1.000000
   18      -11.743736    -11.744706   1.000000   1.000000
   19      -10.877468    -10.875764   1.000000   1.000000
   20      -10.773409    -10.759112   1.000000   1.000000
   21      -10.703948    -10.726598   1.000000   1.000000
   22      -10.639577    -10.633019   1.000000   1.000000
   23       -3.505310     -3.505241   1.000000   1.000000
   24       -3.412773     -3.412791   1.000000   1.000000
   25        0.779396      0.769684   1.000000   1.000000
   26        0.919647      0.910340   1.000000   1.000000
   27        1.117536      1.148132   1.000000   1.000000
   28        1.306882      1.268817   1.000000   1.000000
   29        1.485260      1.505417   1.000000   1.000000
   30        1.680592      1.715626   1.000000   1.000000
   31        1.929997      1.957730   1.000000   1.000000
   32        2.257485      2.245619   1.000000   1.000000
   33        2.504687      2.472466   1.000000   1.000000
   34        2.822978      2.779833   1.000000   1.000000
   35        2.956760      2.997172   1.000000   1.000000
   36        3.557364      3.542461   1.000000   1.000000
   37        3.790691      3.774212   1.000000   1.000000
   38        3.892870      3.902758   1.000000   1.000000
   39        4.094504      4.105390   1.000000   1.000000
   40        4.238892      4.210658   1.000000   1.000000
   41        4.303663      4.331344   1.000000   1.000000
   42        4.603895      4.619883   1.000000   1.000000
   43        4.720730      4.732741   1.000000   1.000000
   44        5.273820      5.246074   1.000000   1.000000
   45        5.506001      5.541086   1.000000   1.000000
   46        6.098390      6.095685   1.000000   1.000000
   47        6.326896      6.312454   1.000000   1.000000
   48        7.592587      7.586456   0.000000   0.000000
   49        7.665210      7.662154   0.000000   0.000000
   50        7.901156      7.894991   0.000000   0.000000
   51        8.839320      8.811364   0.000000   0.000000
   52        8.953641      8.986437   0.000000   0.000000
   53        9.899646      9.920302   0.000000   0.000000
   54       10.018703      9.995969   0.000000   0.000000
   55       11.048631     11.039767   0.000000   0.000000
   56       11.300198     11.307640   0.000000   0.000000
 
  0.5000000E+00  0.8695652E-01  0.0000000E+00  0.8333333E-02
    1      -49.560347    -49.555335   1.000000   1.000000
    2      -49.518295    -49.513579   1.000000   1.000000
    3      -49.518252    -49.513543   1.000000   1.000000
    4      -45.265858    -45.270797   1.000000   1.000000
    5      -45.222921    -45.227647   1.000000   1.000000
    6      -45.222889    -45.227609   1.000000   1.000000
    7      -16.195108    -16.194491   1.000000   1.000000
    8      -16.183905    -16.185998   1.000000   1.000000
    9      -16.172964    -16.169944   1.000000   1.000000
   10      -16.161677    -16.163289   1.000000   1.000000
   11      -16.122689    -16.121706   1.000000   1.000000
   12      -16.119802    -16.121074   1.000000   1.000000
   13      -16.109812    -16.109913   1.000000   1.000000
   14      -16.108513    -16.107895   1.000000   1.000000
   15      -16.097398    -16.097866   1.000000   1.000000
   16      -16.093717    -16.093409   1.000000   1.000000
   17      -11.882247    -11.880987   1.000000   1.000000
   18      -11.722077    -11.723202   1.000000   1.000000
   19      -10.885272    -10.883528   1.000000   1.000000
   20      -10.787470    -10.771060   1.000000   1.000000
   21      -10.701487    -10.728937   1.000000   1.000000
   22      -10.634427    -10.625090   1.000000   1.000000
   23       -3.522453     -3.522370   1.000000   1.000000
   24       -3.398171     -3.398224   1.000000   1.000000
   25        0.769394      0.753002   1.000000   1.000000
   26        0.927246      0.912866   1.000000   1.000000
   27        1.124100      1.170852   1.000000   1.000000
   28        1.308449      1.252693   1.000000   1.000000
   29        1.502544      1.527534   1.000000   1.000000
   30        1.674847      1.736068   1.000000   1.000000
   31        1.912988      1.948774   1.000000   1.000000
   32        2.267021      2.255446   1.000000   1.000000
   33        2.556891      2.501420   1.000000   1.000000
   34        2.820601      2.756563   1.000000   1.000000
   35        2.961264      3.019471   1.000000   1.000000
   36        3.550039      3.521728   1.000000   1.000000
   37        3.755223      3.735727   1.000000   1.000000
   38        3.885279      3.893746   1.000000   1.000000
   39        4.083463      4.093690   1.000000   1.000000
   40        4.224726      4.212982   1.000000   1.000000
   41        4.328441      4.347728   1.000000   1.000000
   42        4.601708      4.623427   1.000000   1.000000
   43        4.730351      4.754609   1.000000   1.000000
   44        5.286374      5.241286   1.000000   1.000000
   45        5.484679      5.543789   1.000000   1.000000
   46        6.094247      6.088275   1.000000   1.000000
   47        6.325899      6.300535   1.000000   1.000000
   48        7.597578      7.588880   0.000000   0.000000
   49        7.665995      7.663912   0.000000   0.000000
   50        7.896149      7.887429   0.000000   0.000000
   51        8.836364      8.797701   0.000000   0.000000
   52        8.955269      9.006088   0.000000   0.000000
   53        9.887016      9.923697   0.000000   0.000000
   54       10.034170      9.994106   0.000000   0.000000
   55       11.009307     10.998756   0.000000   0.000000
   56       11.326545     11.335400   0.000000   0.000000
 
  0.5000000E+00  0.1086957E+00  0.0000000E+00  0.8333333E-02
    1      -49.560348    -49.555335   1.000000   1.000000
    2      -49.518295    -49.513579   1.000000   1.000000
    3      -49.518252    -49.513542   1.000000   1.000000
    4      -45.265858    -45.270797   1.000000   1.000000
    5      -45.222921    -45.227646   1.000000   1.000000
    6      -45.222889    -45.227609   1.000000   1.000000
    7      -16.198242    -16.197779   1.000000   1.000000
    8      -16.184275    -16.186200   1.000000   1.000000
    9      -16.172125    -16.169156   1.000000   1.000000
   10      -16.159093    -16.160683   1.000000   1.000000
   11      -16.123349    -16.122487   1.000000   1.000000
   12      -16.119729    -16.120981   1.000000   1.000000
   13      -16.109826    -16.109966   1.000000   1.000000
   14      -16.108619    -16.107779   1.000000   1.000000
   15      -16.097348    -16.097836   1.000000   1.000000
   16      -16.092683    -16.092422   1.000000   1.000000
   17      -11.891487    -11.890177   1.000000   1.000000
   18      -11.698463    -11.699797   1.000000   1.000000
   19      -10.895273    -10.893168   1.000000   1.000000
   20      -10.802002    -10.785475   1.000000   1.000000
   21      -10.701398    -10.730798   1.000000   1.000000
   22      -10.627946    -10.616968   1.000000   1.000000
   23       -3.540403     -3.540305   1.000000   1.000000
   24       -3.383413     -3.383510   1.000000   1.000000
   25        0.756391      0.733720   1.000000   1.000000
   26        0.937084      0.917210   1.000000   1.000000
   27        1.133170      1.194175   1.000000   1.000000
   28        1.311045      1.241100   1.000000   1.000000
   29        1.523074      1.550885   1.000000   1.000000
   30        1.665795      1.756248   1.000000   1.000000
   31        1.903270      1.943908   1.000000   1.000000
   32        2.274862      2.266249   1.000000   1.000000
   33        2.613100      2.533705   1.000000   1.000000
   34        2.817835      2.735126   1.000000   1.000000
   35        2.969692      3.041820   1.000000   1.000000
   36        3.541860      3.496079   1.000000   1.000000
   37        3.716481      3.697070   1.000000   1.000000
   38        3.873788      3.880094   1.000000   1.000000
   39        4.068687      4.073515   1.000000   1.000000
   40        4.205338      4.223200   1.000000   1.000000
   41        4.360384      4.362081   1.000000   1.000000
   42        4.602642      4.628309   1.000000   1.000000
   43        4.738033      4.778374   1.000000   1.000000
   44        5.299887      5.236982   1.000000   1.000000
   45        5.459187      5.546250   1.000000   1.000000
   46        6.089327      6.078770   1.000000   1.000000
   47        6.323494      6.285941   1.000000   1.000000
   48        7.603856      7.591393   0.000000   0.000000
   49        7.666583      7.666596   0.000000   0.000000
   50        7.890095      7.878067   0.000000   0.000000
   51        8.827368      8.782183   0.000000   0.000000
   52        8.963003      9.028223   0.000000   0.000000
   53        9.868292      9.921490   0.000000   0.000000
   54       10.054460      9.996280   0.000000   0.000000
   55       10.974674     10.963712   0.000000   0.000000
   56       11.345670     11.354772   0.000000   0.000000
 
  0.5000000E+00  0.1304348E+00  0.0000000E+00  0.8333333E-02
    1      -49.560348    -49.555335   1.000000   1.000000
    2      -49.518296    -49.513578   1.000000   1.000000
    3      -49.518251    -49.513543   1.000000   1.000000
    4      -45.265858    -45.270798   1.000000   1.000000
    5      -45.222919    -45.227648   1.000000   1.000000
    6      -45.222890    -45.227607   1.000000   1.000000
    7      -16.201457    -16.201114   1.000000   1.000000
    8      -16.184693    -16.186402   1.000000   1.000000
    9      -16.171086    -16.168269   1.000000   1.000000
   10      -16.156610    -16.158160   1.000000   1.000000
   11      -16.124085    -16.123344   1.000000   1.000000
   12      -16.119643    -16.120863   1.000000   1.000000
   13      -16.109870    -16.110022   1.000000   1.000000
   14      -16.108703    -16.107699   1.000000   1.000000
   15      -16.097287    -16.097772   1.000000   1.000000
   16      -16.091494    -16.091282   1.000000   1.000000
   17      -11.899287    -11.897919   1.000000   1.000000
   18      -11.673346    -11.674926   1.000000   1.000000
   19      -10.907449    -10.904603   1.000000   1.000000
   20      -10.816761    -10.801516   1.000000   1.000000
   21      -10.703304    -10.732593   1.000000   1.000000
   22      -10.620653    -10.609048   1.000000   1.000000
   23       -3.559156     -3.559042   1.000000   1.000000
   24       -3.368437     -3.368580   1.000000   1.000000
   25        0.740580      0.712750   1.000000   1.000000
   26        0.948988      0.923468   1.000000   1.000000
   27        1.144871      1.209749   1.000000   1.000000
   28        1.315039      1.241871   1.000000   1.000000
   29        1.545147      1.576042   1.000000   1.000000
   30        1.654612      1.771033   1.000000   1.000000
   31        1.902365      1.947553   1.000000   1.000000
   32        2.281745      2.276621   1.000000   1.000000
   33        2.663019      2.565319   1.000000   1.000000
   34        2.819977      2.719747   1.000000   1.000000
   35        2.982851      3.062722   1.000000   1.000000
   36        3.533451      3.466560   1.000000   1.000000
   37        3.676015      3.660746   1.000000   1.000000
   38        3.858247      3.862910   1.000000   1.000000
   39        4.051249      4.048285   1.000000   1.000000
   40        4.184338      4.236520   1.000000   1.000000
   41        4.396193      4.374704   1.000000   1.000000
   42        4.606320      4.634450   1.000000   1.000000
   43        4.743056      4.801727   1.000000   1.000000
   44        5.312714      5.234278   1.000000   1.000000
   45        5.431061      5.547915   1.000000   1.000000
   46        6.083876      6.067231   1.000000   1.000000
   47        6.319033      6.269170   1.000000   1.000000
   48        7.611269      7.593569   0.000000   0.000000
   49        7.666780      7.670487   0.000000   0.000000
   50        7.883259      7.867172   0.000000   0.000000
   51        8.811664      8.764929   0.000000   0.000000
   52        8.977590      9.052007   0.000000   0.000000
   53        9.843664      9.909225   0.000000   0.000000
   54       10.078339     10.006009   0.000000   0.000000
   55       10.945860     10.936053   0.000000   0.000000
   56       11.357135     11.366165   0.000000   0.000000
 
  0.5000000E+00  0.1521739E+00  0.0000000E+00  0.8333333E-02
    1      -49.560347    -49.555335   1.000000   1.000000
    2      -49.518294    -49.513577   1.000000   1.000000
    3      -49.518250    -49.513542   1.000000   1.000000
    4      -45.265858    -45.270797   1.000000   1.000000
    5      -45.222918    -45.227646   1.000000   1.000000
    6      -45.222888    -45.227606   1.000000   1.000000
    7      -16.204690    -16.204436   1.000000   1.000000
    8      -16.185100    -16.186589   1.000000   1.000000
    9      -16.169922    -16.167298   1.000000   1.000000
   10      -16.154276    -16.155779   1.000000   1.000000
   11      -16.124860    -16.124229   1.000000   1.000000
   12      -16.119537    -16.120718   1.000000   1.000000
   13      -16.109956    -16.110084   1.000000   1.000000
   14      -16.108755    -16.107664   1.000000   1.000000
   15      -16.097204    -16.097667   1.000000   1.000000
   16      -16.090185    -16.090021   1.000000   1.000000
   17      -11.905514    -11.904100   1.000000   1.000000
   18      -11.647048    -11.648906   1.000000   1.000000
   19      -10.921660    -10.917619   1.000000   1.000000
   20      -10.831541    -10.818547   1.000000   1.000000
   21      -10.706680    -10.734580   1.000000   1.000000
   22      -10.613036    -10.601520   1.000000   1.000000
   23       -3.578670     -3.578541   1.000000   1.000000
   24       -3.353205     -3.353396   1.000000   1.000000
   25        0.722305      0.690777   1.000000   1.000000
   26        0.962654      0.931796   1.000000   1.000000
   27        1.159198      1.210521   1.000000   1.000000
   28        1.320813      1.261144   1.000000   1.000000
   29        1.564836      1.603806   1.000000   1.000000
   30        1.645770      1.776930   1.000000   1.000000
   31        1.909900      1.962314   1.000000   1.000000
   32        2.288336      2.284933   1.000000   1.000000
   33        2.691028      2.590135   1.000000   1.000000
   34        2.838425      2.716903   1.000000   1.000000
   35        3.001256      3.080344   1.000000   1.000000
   36        3.525368      3.434964   1.000000   1.000000
   37        3.634932      3.628887   1.000000   1.000000
   38        3.839152      3.843131   1.000000   1.000000
   39        4.031259      4.020003   1.000000   1.000000
   40        4.165267      4.249943   1.000000   1.000000
   41        4.433696      4.386041   1.000000   1.000000
   42        4.611970      4.641743   1.000000   1.000000
   43        4.745111      4.822506   1.000000   1.000000
   44        5.322308      5.234241   1.000000   1.000000
   45        5.403019      5.548256   1.000000   1.000000
   46        6.078130      6.053793   1.000000   1.000000
   47        6.311893      6.250787   1.000000   1.000000
   48        7.619565      7.594985   0.000000   0.000000
   49        7.666458      7.675820   0.000000   0.000000
   50        7.875947      7.855083   0.000000   0.000000
   51        8.790194      8.745851   0.000000   0.000000
   52        8.998042      9.076785   0.000000   0.000000
   53        9.813695      9.886476   0.000000   0.000000
   54       10.104476     10.023177   0.000000   0.000000
   55       10.923316     10.916226   0.000000   0.000000
   56       11.361527     11.369296   0.000000   0.000000
 
  0.5000000E+00  0.1739130E+00  0.0000000E+00  0.8333333E-02
    1      -49.560347    -49.555334   1.000000   1.000000
    2      -49.518294    -49.513577   1.000000   1.000000
    3      -49.518249    -49.513541   1.000000   1.000000
    4      -45.265857    -45.270796   1.000000   1.000000
    5      -45.222917    -45.227645   1.000000   1.000000
    6      -45.222887    -45.227605   1.000000   1.000000
    7      -16.207896    -16.207710   1.000000   1.000000
    8      -16.185473    -16.186755   1.000000   1.000000
    9      -16.168689    -16.166272   1.000000   1.000000
   10      -16.152134    -16.153586   1.000000   1.000000
   11      -16.125652    -16.125119   1.000000   1.000000
   12      -16.119423    -16.120558   1.000000   1.000000
   13      -16.110085    -16.110153   1.000000   1.000000
   14      -16.108784    -16.107685   1.000000   1.000000
   15      -16.097100    -16.097523   1.000000   1.000000
   16      -16.088785    -16.088660   1.000000   1.000000
   17      -11.910123    -11.908668   1.000000   1.000000
   18      -11.619836    -11.622007   1.000000   1.000000
   19      -10.937781    -10.932198   1.000000   1.000000
   20      -10.846272    -10.836140   1.000000   1.000000
   21      -10.711139    -10.736900   1.000000   1.000000
   22      -10.605509    -10.594530   1.000000   1.000000
   23       -3.598854     -3.598710   1.000000   1.000000
   24       -3.337737     -3.337975   1.000000   1.000000
   25        0.702007      0.668301   1.000000   1.000000
   26        0.977653      0.942433   1.000000   1.000000
   27        1.176016      1.208246   1.000000   1.000000
   28        1.328709      1.286118   1.000000   1.000000
   29        1.573554      1.634442   1.000000   1.000000
   30        1.648778      1.775149   1.000000   1.000000
   31        1.924644      1.986229   1.000000   1.000000
   32        2.295117      2.289668   1.000000   1.000000
   33        2.691104      2.603346   1.000000   1.000000
   34        2.875114      2.731792   1.000000   1.000000
   35        3.025480      3.092092   1.000000   1.000000
   36        3.518023      3.404057   1.000000   1.000000
   37        3.594219      3.603334   1.000000   1.000000
   38        3.817570      3.821540   1.000000   1.000000
   39        4.008508      3.989480   1.000000   1.000000
   40        4.151027      4.262145   1.000000   1.000000
   41        4.471364      4.396368   1.000000   1.000000
   42        4.618671      4.650093   1.000000   1.000000
   43        4.744313      4.838975   1.000000   1.000000
   44        5.322476      5.237658   1.000000   1.000000
   45        5.381751      5.546797   1.000000   1.000000
   46        6.072270      6.038680   1.000000   1.000000
   47        6.301535      6.231377   1.000000   1.000000
   48        7.628361      7.595331   0.000000   0.000000
   49        7.665598      7.682667   0.000000   0.000000
   50        7.868498      7.842196   0.000000   0.000000
   51        8.764186      8.724780   0.000000   0.000000
   52        9.022901      9.101987   0.000000   0.000000
   53        9.779190      9.855107   0.000000   0.000000
   54       10.131696     10.045923   0.000000   0.000000
   55       10.906671     10.903474   0.000000   0.000000
   56       11.360657     11.365866   0.000000   0.000000
 