   10   10    1    2
  0.1285324E+02  0.5705365E-09  0.5705365E-09  0.5705365E-09  0.5000000E-15
  1.000000000000000E-004
  CAR 
 unknown system                          
     94    120     56
 
  0.5000000E+00  0.0000000E+00  0.0000000E+00  0.8333333E-02
    1      -51.127699    -51.122822   1.000000   1.000000
    2      -51.068800    -51.064208   1.000000   1.000000
    3      -51.068766    -51.064189   1.000000   1.000000
    4      -46.270050    -46.274849   1.000000   1.000000
    5      -46.226942    -46.231544   1.000000   1.000000
    6      -46.226930    -46.231519   1.000000   1.000000
    7      -16.105533    -16.105625   1.000000   1.000000
    8      -16.104703    -16.104644   1.000000   1.000000
    9      -16.092015    -16.092111   1.000000   1.000000
   10      -16.090941    -16.090836   1.000000   1.000000
   11      -16.050573    -16.050542   1.000000   1.000000
   12      -16.049712    -16.049744   1.000000   1.000000
   13      -16.038817    -16.038779   1.000000   1.000000
   14      -16.037628    -16.037676   1.000000   1.000000
   15      -16.027456    -16.027607   1.000000   1.000000
   16      -16.026513    -16.026326   1.000000   1.000000
   17      -11.711453    -11.710080   1.000000   1.000000
   18      -11.672817    -11.673815   1.000000   1.000000
   19      -10.745682    -10.743842   1.000000   1.000000
   20      -10.661804    -10.662952   1.000000   1.000000
   21      -10.604717    -10.604519   1.000000   1.000000
   22      -10.556608    -10.557462   1.000000   1.000000
   23       -3.438620     -3.438498   1.000000   1.000000
   24       -3.420740     -3.420519   1.000000   1.000000
   25       -1.063156     -1.059511   1.000000   1.000000
   26       -1.035342     -1.031733   1.000000   1.000000
   27       -0.857318     -0.853194   1.000000   1.000000
   28       -0.842105     -0.838064   1.000000   1.000000
   29       -0.577852     -0.573686   1.000000   1.000000
   30        1.106531      1.105975   1.000000   1.000000
   31        1.296124      1.296384   1.000000   1.000000
   32        1.745321      1.745455   1.000000   1.000000
   33        2.059841      2.059790   1.000000   1.000000
   34        2.374053      2.373778   1.000000   1.000000
   35        2.594879      2.594519   1.000000   1.000000
   36        2.832573      2.833494   1.000000   1.000000
   37        3.052472      3.051751   1.000000   1.000000
   38        3.724412      3.723649   1.000000   1.000000
   39        4.117397      4.117992   1.000000   1.000000
   40        4.281013      4.280711   1.000000   1.000000
   41        4.392427      4.391274   1.000000   1.000000
   42        4.596560      4.596839   1.000000   1.000000
   43        4.700521      4.700126   1.000000   1.000000
   44        5.083864      5.084942   1.000000   1.000000
   45        5.203076      5.203441   1.000000   1.000000
   46        5.489482      5.489305   1.000000   1.000000
   47        5.732724      5.732996   1.000000   1.000000
   48        8.410253      8.406769   0.000000   0.000000
   49        8.575441      8.571740   0.000000   0.000000
   50        8.718373      8.714673   0.000000   0.000000
   51        9.087278      9.084041   0.000000   0.000000
   52        9.155461      9.152221   0.000000   0.000000
   53        9.862030      9.862822   0.000000   0.000000
   54       10.032013     10.030708   0.000000   0.000000
   55       11.153523     11.153478   0.000000   0.000000
   56       11.229341     11.229266   0.000000   0.000000
 
  0.5000000E+00  0.2173913E-01  0.0000000E+00  0.8333333E-02
    1      -51.127698    -51.122822   1.000000   1.000000
    2      -51.068798    -51.064205   1.000000   1.000000
    3      -51.068763    -51.064187   1.000000   1.000000
    4      -46.270049    -46.274849   1.000000   1.000000
    5      -46.226938    -46.231542   1.000000   1.000000
    6      -46.226927    -46.231515   1.000000   1.000000
    7      -16.106616    -16.106297   1.000000   1.000000
    8      -16.104156    -16.104635   1.000000   1.000000
    9      -16.092598    -16.092095   1.000000   1.000000
   10      -16.089835    -16.090203   1.000000   1.000000
   11      -16.050642    -16.050528   1.000000   1.000000
   12      -16.049697    -16.049825   1.000000   1.000000
   13      -16.038792    -16.038804   1.000000   1.000000
   14      -16.037676    -16.037644   1.000000   1.000000
   15      -16.027632    -16.027778   1.000000   1.000000
   16      -16.026169    -16.026003   1.000000   1.000000
   17      -11.718201    -11.716719   1.000000   1.000000
   18      -11.664430    -11.665562   1.000000   1.000000
   19      -10.746498    -10.745159   1.000000   1.000000
   20      -10.663737    -10.662785   1.000000   1.000000
   21      -10.604846    -10.607615   1.000000   1.000000
   22      -10.555636    -10.555089   1.000000   1.000000
   23       -3.447403     -3.446928   1.000000   1.000000
   24       -3.412306     -3.412469   1.000000   1.000000
   25       -1.068372     -1.064263   1.000000   1.000000
   26       -1.031296     -1.028002   1.000000   1.000000
   27       -0.861062     -0.860103   1.000000   1.000000
   28       -0.836960     -0.830528   1.000000   1.000000
   29       -0.578220     -0.573983   1.000000   1.000000
   30        1.101921      1.104777   1.000000   1.000000
   31        1.301648      1.301567   1.000000   1.000000
   32        1.740445      1.746453   1.000000   1.000000
   33        2.066590      2.060184   1.000000   1.000000
   34        2.380876      2.373144   1.000000   1.000000
   35        2.594560      2.593790   1.000000   1.000000
   36        2.833579      2.832690   1.000000   1.000000
   37        3.053125      3.059937   1.000000   1.000000
   38        3.723323      3.720513   1.000000   1.000000
   39        4.112790      4.118119   1.000000   1.000000
   40        4.280566      4.274980   1.000000   1.000000
   41        4.391671      4.392815   1.000000   1.000000
   42        4.596460      4.597616   1.000000   1.000000
   43        4.699566      4.699842   1.000000   1.000000
   44        5.079397      5.079256   1.000000   1.000000
   45        5.203579      5.207834   1.000000   1.000000
   46        5.489678      5.488490   1.000000   1.000000
   47        5.733961      5.731102   1.000000   1.000000
   48        8.412185      8.407844   0.000000   0.000000
   49        8.575924      8.572052   0.000000   0.000000
   50        8.717951      8.714741   0.000000   0.000000
   51        9.086464      9.079956   0.000000   0.000000
   52        9.154364      9.156401   0.000000   0.000000
   53        9.862227      9.864485   0.000000   0.000000
   54       10.033276     10.030251   0.000000   0.000000
   55       11.134900     11.130145   0.000000   0.000000
   56       11.246019     11.249668   0.000000   0.000000
 
  0.5000000E+00  0.4347826E-01  0.0000000E+00  0.8333333E-02
    1      -51.127698    -51.122822   1.000000   1.000000
    2      -51.068796    -51.064202   1.000000   1.000000
    3      -51.068761    -51.064186   1.000000   1.000000
    4      -46.270049    -46.274849   1.000000   1.000000
    5      -46.226935    -46.231540   1.000000   1.000000
    6      -46.226926    -46.231512   1.000000   1.000000
    7      -16.108534    -16.108028   1.000000   1.000000
    8      -16.103764    -16.104678   1.000000   1.000000
    9      -16.092995    -16.091909   1.000000   1.000000
   10      -16.087988    -16.088693   1.000000   1.000000
   11      -16.050854    -16.050505   1.000000   1.000000
   12      -16.049669    -16.050069   1.000000   1.000000
   13      -16.038735    -16.038888   1.000000   1.000000
   14      -16.037826    -16.037568   1.000000   1.000000
   15      -16.027906    -16.028083   1.000000   1.000000
   16      -16.025433    -16.025281   1.000000   1.000000
   17      -11.730967    -11.729129   1.000000   1.000000
   18      -11.646924    -11.648484   1.000000   1.000000
   19      -10.749047    -10.749076   1.000000   1.000000
   20      -10.669167    -10.662479   1.000000   1.000000
   21      -10.605563    -10.615568   1.000000   1.000000
   22      -10.552868    -10.549353   1.000000   1.000000
   23       -3.462032     -3.461172   1.000000   1.000000
   24       -3.398742     -3.399386   1.000000   1.000000
   25       -1.079548     -1.074692   1.000000   1.000000
   26       -1.023628     -1.020639   1.000000   1.000000
   27       -0.867034     -0.870808   1.000000   1.000000
   28       -0.826853     -0.817944   1.000000   1.000000
   29       -0.579329     -0.574895   1.000000   1.000000
   30        1.089668      1.101602   1.000000   1.000000
   31        1.316598      1.316596   1.000000   1.000000
   32        1.728114      1.749413   1.000000   1.000000
   33        2.084265      2.061385   1.000000   1.000000
   34        2.401426      2.371112   1.000000   1.000000
   35        2.593626      2.592208   1.000000   1.000000
   36        2.836597      2.830986   1.000000   1.000000
   37        3.055115      3.083231   1.000000   1.000000
   38        3.720177      3.711447   1.000000   1.000000
   39        4.099829      4.118151   1.000000   1.000000
   40        4.277718      4.259012   1.000000   1.000000
   41        4.389917      4.396560   1.000000   1.000000
   42        4.596144      4.599670   1.000000   1.000000
   43        4.697083      4.698957   1.000000   1.000000
   44        5.066641      5.064772   1.000000   1.000000
   45        5.204562      5.218182   1.000000   1.000000
   46        5.489941      5.486286   1.000000   1.000000
   47        5.737664      5.725563   1.000000   1.000000
   48        8.417891      8.411008   0.000000   0.000000
   49        8.577364      8.572978   0.000000   0.000000
   50        8.716686      8.714878   0.000000   0.000000
   51        9.083237      9.069539   0.000000   0.000000
   52        9.151972      9.167016   0.000000   0.000000
   53        9.862056      9.869406   0.000000   0.000000
   54       10.037532     10.028699   0.000000   0.000000
   55       11.099430     11.087659   0.000000   0.000000
   56       11.275471     11.283657   0.000000   0.000000
 
  0.5000000E+00  0.6521739E-01  0.0000000E+00  0.8333333E-02
    1      -51.127699    -51.122822   1.000000   1.000000
    2      -51.068797    -51.064201   1.000000   1.000000
    3      -51.068759    -51.064186   1.000000   1.000000
    4      -46.270050    -46.274850   1.000000   1.000000
    5      -46.226933    -46.231541   1.000000   1.000000
    6      -46.226927    -46.231511   1.000000   1.000000
    7      -16.110905    -16.110404   1.000000   1.000000
    8      -16.103672    -16.104770   1.000000   1.000000
    9      -16.092932    -16.091520   1.000000   1.000000
   10      -16.085924    -16.086770   1.000000   1.000000
   11      -16.051196    -16.050573   1.000000   1.000000
   12      -16.049625    -16.050351   1.000000   1.000000
   13      -16.038655    -16.039019   1.000000   1.000000
   14      -16.038051    -16.037465   1.000000   1.000000
   15      -16.028132    -16.028358   1.000000   1.000000
   16      -16.024476    -16.024336   1.000000   1.000000
   17      -11.744064    -11.741781   1.000000   1.000000
   18      -11.626032    -11.628157   1.000000   1.000000
   19      -10.753394    -10.755373   1.000000   1.000000
   20      -10.677246    -10.662397   1.000000   1.000000
   21      -10.607308    -10.626155   1.000000   1.000000
   22      -10.548582    -10.542278   1.000000   1.000000
   23       -3.478047     -3.476862   1.000000   1.000000
   24       -3.384490     -3.385614   1.000000   1.000000
   25       -1.092874     -1.087369   1.000000   1.000000
   26       -1.016089     -1.013020   1.000000   1.000000
   27       -0.872259     -0.881271   1.000000   1.000000
   28       -0.814933     -0.804318   1.000000   1.000000
   29       -0.581152     -0.576441   1.000000   1.000000
   30        1.072940      1.097357   1.000000   1.000000
   31        1.337673      1.340274   1.000000   1.000000
   32        1.713282      1.754265   1.000000   1.000000
   33        2.107492      2.063454   1.000000   1.000000
   34        2.435566      2.367404   1.000000   1.000000
   35        2.592211      2.591312   1.000000   1.000000
   36        2.841631      2.829766   1.000000   1.000000
   37        3.058540      3.118765   1.000000   1.000000
   38        3.715339      3.697396   1.000000   1.000000
   39        4.080461      4.117190   1.000000   1.000000
   40        4.269062      4.235227   1.000000   1.000000
   41        4.388387      4.401035   1.000000   1.000000
   42        4.595620      4.602203   1.000000   1.000000
   43        4.693966      4.697422   1.000000   1.000000
   44        5.047055      5.045921   1.000000   1.000000
   45        5.204954      5.229289   1.000000   1.000000
   46        5.489465      5.483465   1.000000   1.000000
   47        5.743754      5.716801   1.000000   1.000000
   48        8.427132      8.416109   0.000000   0.000000
   49        8.579768      8.574528   0.000000   0.000000
   50        8.714631      8.714944   0.000000   0.000000
   51        9.075573      9.055426   0.000000   0.000000
   52        9.150735      9.181226   0.000000   0.000000
   53        9.859594      9.877352   0.000000   0.000000
   54       10.045982     10.025668   0.000000   0.000000
   55       11.061074     11.043007   0.000000   0.000000
   56       11.303694     11.314831   0.000000   0.000000
 
  0.5000000E+00  0.8695652E-01  0.0000000E+00  0.8333333E-02
    1      -51.127700    -51.122823   1.000000   1.000000
    2      -51.068798    -51.064201   1.000000   1.000000
    3      -51.068759    -51.064187   1.000000   1.000000
    4      -46.270051    -46.274851   1.000000   1.000000
    5      -46.226934    -46.231542   1.000000   1.000000
    6      -46.226928    -46.231510   1.000000   1.000000
    7      -16.113566    -16.113123   1.000000   1.000000
    8      -16.103760    -16.104884   1.000000   1.000000
    9      -16.092509    -16.090962   1.000000   1.000000
   10      -16.083802    -16.084705   1.000000   1.000000
   11      -16.051641    -16.051040   1.000000   1.000000
   12      -16.049560    -16.050327   1.000000   1.000000
   13      -16.038557    -16.039182   1.000000   1.000000
   14      -16.038320    -16.037344   1.000000   1.000000
   15      -16.028300    -16.028574   1.000000   1.000000
   16      -16.023342    -16.023217   1.000000   1.000000
   17      -11.756100    -11.753360   1.000000   1.000000
   18      -11.603173    -11.605920   1.000000   1.000000
   19      -10.759644    -10.763712   1.000000   1.000000
   20      -10.687021    -10.663301   1.000000   1.000000
   21      -10.610274    -10.637623   1.000000   1.000000
   22      -10.543197    -10.534956   1.000000   1.000000
   23       -3.495006     -3.493547   1.000000   1.000000
   24       -3.369946     -3.371550   1.000000   1.000000
   25       -1.107168     -1.101203   1.000000   1.000000
   26       -1.009723     -1.006181   1.000000   1.000000
   27       -0.876243     -0.890785   1.000000   1.000000
   28       -0.801986     -0.790275   1.000000   1.000000
   29       -0.583640     -0.578631   1.000000   1.000000
   30        1.054500      1.092859   1.000000   1.000000
   31        1.361891      1.371348   1.000000   1.000000
   32        1.700697      1.760889   1.000000   1.000000
   33        2.131665      2.066452   1.000000   1.000000
   34        2.482092      2.361883   1.000000   1.000000
   35        2.590689      2.592900   1.000000   1.000000
   36        2.848662      2.830070   1.000000   1.000000
   37        3.063531      3.163482   1.000000   1.000000
   38        3.709402      3.679700   1.000000   1.000000
   39        4.056677      4.114118   1.000000   1.000000
   40        4.251702      4.205716   1.000000   1.000000
   41        4.387969      4.405390   1.000000   1.000000
   42        4.594966      4.603974   1.000000   1.000000
   43        4.691039      4.695312   1.000000   1.000000
   44        5.022183      5.025891   1.000000   1.000000
   45        5.203910      5.236699   1.000000   1.000000
   46        5.487304      5.481331   1.000000   1.000000
   47        5.751930      5.705453   1.000000   1.000000
   48        8.439545      8.422911   0.000000   0.000000
   49        8.583132      8.576724   0.000000   0.000000
   50        8.711886      8.714715   0.000000   0.000000
   51        9.061589      9.038943   0.000000   0.000000
   52        9.153116      9.197461   0.000000   0.000000
   53        9.852632      9.887671   0.000000   0.000000
   54       10.059798     10.020856   0.000000   0.000000
   55       11.024360     11.001091   0.000000   0.000000
   56       11.327008     11.339326   0.000000   0.000000
 
  0.5000000E+00  0.1086957E+00  0.0000000E+00  0.8333333E-02
    1      -51.127700    -51.122824   1.000000   1.000000
    2      -51.068799    -51.064203   1.000000   1.000000
    3      -51.068760    -51.064187   1.000000   1.000000
    4      -46.270051    -46.274851   1.000000   1.000000
    5      -46.226936    -46.231544   1.000000   1.000000
    6      -46.226928    -46.231512   1.000000   1.000000
    7      -16.116406    -16.116025   1.000000   1.000000
    8      -16.103939    -16.105006   1.000000   1.000000
    9      -16.091835    -16.090266   1.000000   1.000000
   10      -16.081732    -16.082657   1.000000   1.000000
   11      -16.052166    -16.051641   1.000000   1.000000
   12      -16.049478    -16.050232   1.000000   1.000000
   13      -16.038644    -16.039363   1.000000   1.000000
   14      -16.038414    -16.037219   1.000000   1.000000
   15      -16.028426    -16.028739   1.000000   1.000000
   16      -16.022057    -16.021949   1.000000   1.000000
   17      -11.766669    -11.763502   1.000000   1.000000
   18      -11.578871    -11.582256   1.000000   1.000000
   19      -10.767935    -10.773858   1.000000   1.000000
   20      -10.697813    -10.667211   1.000000   1.000000
   21      -10.614414    -10.647600   1.000000   1.000000
   22      -10.537218    -10.527896   1.000000   1.000000
   23       -3.512855     -3.511174   1.000000   1.000000
   24       -3.355129     -3.357200   1.000000   1.000000
   25       -1.121959     -1.115768   1.000000   1.000000
   26       -1.004771     -1.000502   1.000000   1.000000
   27       -0.878941     -0.898893   1.000000   1.000000
   28       -0.788526     -0.776196   1.000000   1.000000
   29       -0.586706     -0.581448   1.000000   1.000000
   30        1.036216      1.088548   1.000000   1.000000
   31        1.387095      1.408811   1.000000   1.000000
   32        1.693858      1.769100   1.000000   1.000000
   33        2.154278      2.070374   1.000000   1.000000
   34        2.537474      2.354856   1.000000   1.000000
   35        2.590600      2.598346   1.000000   1.000000
   36        2.857634      2.832351   1.000000   1.000000
   37        3.070222      3.214685   1.000000   1.000000
   38        3.703157      3.659917   1.000000   1.000000
   39        4.030050      4.107910   1.000000   1.000000
   40        4.224952      4.172036   1.000000   1.000000
   41        4.388332      4.409253   1.000000   1.000000
   42        4.594258      4.603468   1.000000   1.000000
   43        4.688584      4.692976   1.000000   1.000000
   44        4.993417      5.006663   1.000000   1.000000
   45        5.201065      5.236948   1.000000   1.000000
   46        5.482730      5.481459   1.000000   1.000000
   47        5.761553      5.692292   1.000000   1.000000
   48        8.454649      8.431102   0.000000   0.000000
   49        8.587411      8.579600   0.000000   0.000000
   50        8.708587      8.713884   0.000000   0.000000
   51        9.041052      9.020562   0.000000   0.000000
   52        9.159931      9.214942   0.000000   0.000000
   53        9.839717      9.898601   0.000000   0.000000
   54       10.079243     10.014864   0.000000   0.000000
   55       10.991292     10.964654   0.000000   0.000000
   56       11.345542     11.355776   0.000000   0.000000
 
  0.5000000E+00  0.1304348E+00  0.0000000E+00  0.8333333E-02
    1      -51.127700    -51.122823   1.000000   1.000000
    2      -51.068799    -51.064202   1.000000   1.000000
    3      -51.068758    -51.064187   1.000000   1.000000
    4      -46.270051    -46.274850   1.000000   1.000000
    5      -46.226934    -46.231544   1.000000   1.000000
    6      -46.226928    -46.231510   1.000000   1.000000
    7      -16.119328    -16.119000   1.000000   1.000000
    8      -16.104147    -16.105120   1.000000   1.000000
    9      -16.090986    -16.089455   1.000000   1.000000
   10      -16.079777    -16.080710   1.000000   1.000000
   11      -16.052736    -16.052293   1.000000   1.000000
   12      -16.049377    -16.050108   1.000000   1.000000
   13      -16.038941    -16.039552   1.000000   1.000000
   14      -16.038295    -16.037102   1.000000   1.000000
   15      -16.028504    -16.028843   1.000000   1.000000
   16      -16.020643    -16.020553   1.000000   1.000000
   17      -11.775570    -11.772041   1.000000   1.000000
   18      -11.553412    -11.557420   1.000000   1.000000
   19      -10.778354    -10.785534   1.000000   1.000000
   20      -10.709076    -10.676779   1.000000   1.000000
   21      -10.619447    -10.653162   1.000000   1.000000
   22      -10.531011    -10.521279   1.000000   1.000000
   23       -3.531563     -3.529714   1.000000   1.000000
   24       -3.339983     -3.342493   1.000000   1.000000
   25       -1.136991     -1.130824   1.000000   1.000000
   26       -1.001161     -0.996178   1.000000   1.000000
   27       -0.880446     -0.905147   1.000000   1.000000
   28       -0.775070     -0.762471   1.000000   1.000000
   29       -0.590193     -0.584806   1.000000   1.000000
   30        1.019290      1.084521   1.000000   1.000000
   31        1.411892      1.451948   1.000000   1.000000
   32        1.695008      1.778663   1.000000   1.000000
   33        2.174377      2.075104   1.000000   1.000000
   34        2.578078      2.347198   1.000000   1.000000
   35        2.612815      2.608303   1.000000   1.000000
   36        2.868454      2.836699   1.000000   1.000000
   37        3.078697      3.269865   1.000000   1.000000
   38        3.697586      3.639817   1.000000   1.000000
   39        4.001732      4.097569   1.000000   1.000000
   40        4.190069      4.135736   1.000000   1.000000
   41        4.388368      4.412179   1.000000   1.000000
   42        4.593325      4.599287   1.000000   1.000000
   43        4.686267      4.691006   1.000000   1.000000
   44        4.962086      4.989513   1.000000   1.000000
   45        5.196481      5.227761   1.000000   1.000000
   46        5.475413      5.484961   1.000000   1.000000
   47        5.771674      5.678155   1.000000   1.000000
   48        8.471894      8.440323   0.000000   0.000000
   49        8.592500      8.583207   0.000000   0.000000
   50        8.704954      8.712089   0.000000   0.000000
   51        9.014912      9.000464   0.000000   0.000000
   52        9.170774      9.233225   0.000000   0.000000
   53        9.820570      9.905798   0.000000   0.000000
   54       10.103470     10.010939   0.000000   0.000000
   55       10.963058     10.935621   0.000000   0.000000
   56       11.353926     11.363934   0.000000   0.000000
 
  0.5000000E+00  0.1521739E+00  0.0000000E+00  0.8333333E-02
    1      -51.127701    -51.122825   1.000000   1.000000
    2      -51.068799    -51.064201   1.000000   1.000000
    3      -51.068757    -51.064186   1.000000   1.000000
    4      -46.270052    -46.274851   1.000000   1.000000
    5      -46.226933    -46.231543   1.000000   1.000000
    6      -46.226927    -46.231508   1.000000   1.000000
    7      -16.122281    -16.121997   1.000000   1.000000
    8      -16.104356    -16.105221   1.000000   1.000000
    9      -16.090017    -16.088554   1.000000   1.000000
   10      -16.077994    -16.078926   1.000000   1.000000
   11      -16.053326    -16.052961   1.000000   1.000000
   12      -16.049263    -16.049966   1.000000   1.000000
   13      -16.039243    -16.039748   1.000000   1.000000
   14      -16.038181    -16.037014   1.000000   1.000000
   15      -16.028536    -16.028886   1.000000   1.000000
   16      -16.019142    -16.019068   1.000000   1.000000
   17      -11.782821    -11.778997   1.000000   1.000000
   18      -11.527022    -11.531622   1.000000   1.000000
   19      -10.790949    -10.798620   1.000000   1.000000
   20      -10.720558    -10.690412   1.000000   1.000000
   21      -10.625151    -10.655793   1.000000   1.000000
   22      -10.524925    -10.515266   1.000000   1.000000
   23       -3.551085     -3.549126   1.000000   1.000000
   24       -3.324487     -3.327387   1.000000   1.000000
   25       -1.152105     -1.146214   1.000000   1.000000
   26       -0.998686     -0.993286   1.000000   1.000000
   27       -0.880927     -0.909183   1.000000   1.000000
   28       -0.762228     -0.749581   1.000000   1.000000
   29       -0.593869     -0.588529   1.000000   1.000000
   30        1.004464      1.080635   1.000000   1.000000
   31        1.435651      1.500214   1.000000   1.000000
   32        1.705196      1.789295   1.000000   1.000000
   33        2.191629      2.080367   1.000000   1.000000
   34        2.582301      2.340188   1.000000   1.000000
   35        2.675924      2.622791   1.000000   1.000000
   36        2.881011      2.843041   1.000000   1.000000
   37        3.088908      3.326156   1.000000   1.000000
   38        3.693810      3.621636   1.000000   1.000000
   39        3.972563      4.079683   1.000000   1.000000
   40        4.149174      4.101050   1.000000   1.000000
   41        4.387093      4.413263   1.000000   1.000000
   42        4.591546      4.590846   1.000000   1.000000
   43        4.683387      4.689878   1.000000   1.000000
   44        4.929601      4.975226   1.000000   1.000000
   45        5.190494      5.208535   1.000000   1.000000
   46        5.465406      5.491668   1.000000   1.000000
   47        5.781189      5.663924   1.000000   1.000000
   48        8.490671      8.450162   0.000000   0.000000
   49        8.598178      8.587594   0.000000   0.000000
   50        8.701266      8.708912   0.000000   0.000000
   51        8.984174      8.978784   0.000000   0.000000
   52        9.184989      9.251951   0.000000   0.000000
   53        9.795766      9.901791   0.000000   0.000000
   54       10.130949     10.015755   0.000000   0.000000
   55       10.940296     10.914733   0.000000   0.000000
   56       11.357516     11.364194   0.000000   0.000000
 
  0.5000000E+00  0.1739130E+00  0.0000000E+00  0.8333333E-02
    1      -51.127701    -51.122824   1.000000   1.000000
    2      -51.068798    -51.064200   1.000000   1.000000
    3      -51.068756    -51.064185   1.000000   1.000000
    4      -46.270051    -46.274851   1.000000   1.000000
    5      -46.226932    -46.231542   1.000000   1.000000
    6      -46.226926    -46.231507   1.000000   1.000000
    7      -16.125217    -16.124968   1.000000   1.000000
    8      -16.104545    -16.105304   1.000000   1.000000
    9      -16.088962    -16.087578   1.000000   1.000000
   10      -16.076413    -16.077336   1.000000   1.000000
   11      -16.053905    -16.053615   1.000000   1.000000
   12      -16.049134    -16.049805   1.000000   1.000000
   13      -16.039536    -16.039945   1.000000   1.000000
   14      -16.038089    -16.036971   1.000000   1.000000
   15      -16.028523    -16.028866   1.000000   1.000000
   16      -16.017564    -16.017503   1.000000   1.000000
   17      -11.788385    -11.784336   1.000000   1.000000
   18      -11.499900    -11.505060   1.000000   1.000000
   19      -10.805560    -10.812961   1.000000   1.000000
   20      -10.732100    -10.705607   1.000000   1.000000
   21      -10.631259    -10.657734   1.000000   1.000000
   22      -10.519141    -10.509873   1.000000   1.000000
   23       -3.571317     -3.569305   1.000000   1.000000
   24       -3.308648     -3.311869   1.000000   1.000000
   25       -1.167171     -1.161781   1.000000   1.000000
   26       -0.997048     -0.991712   1.000000   1.000000
   27       -0.880576     -0.910842   1.000000   1.000000
   28       -0.750681     -0.738093   1.000000   1.000000
   29       -0.597380     -0.592299   1.000000   1.000000
   30        0.992197      1.076655   1.000000   1.000000
   31        1.458593      1.553146   1.000000   1.000000
   32        1.724314      1.800725   1.000000   1.000000
   33        2.205768      2.085774   1.000000   1.000000
   34        2.584714      2.335215   1.000000   1.000000
   35        2.742381      2.641484   1.000000   1.000000
   36        2.895298      2.851254   1.000000   1.000000
   37        3.100614      3.379324   1.000000   1.000000
   38        3.692987      3.608857   1.000000   1.000000
   39        3.943197      4.045646   1.000000   1.000000
   40        4.104622      4.077712   1.000000   1.000000
   41        4.383991      4.411041   1.000000   1.000000
   42        4.587871      4.578958   1.000000   1.000000
   43        4.679131      4.689610   1.000000   1.000000
   44        4.897583      4.964146   1.000000   1.000000
   45        5.183577      5.180243   1.000000   1.000000
   46        5.453026      5.500002   1.000000   1.000000
   47        5.789038      5.650615   1.000000   1.000000
   48        8.510347      8.460199   0.000000   0.000000
   49        8.604103      8.592777   0.000000   0.000000
   50        8.697926      8.703931   0.000000   0.000000
   51        8.949557      8.955795   0.000000   0.000000
   52        9.202071      9.270842   0.000000   0.000000
   53        9.766342      9.882563   0.000000   0.000000
   54       10.160061     10.033118   0.000000   0.000000
   55       10.922904     10.901468   0.000000   0.000000
   56       11.355880     11.357639   0.000000   0.000000
 