   10   10    1    2
  0.1285713E+02  0.5706178E-09  0.5706178E-09  0.5706178E-09  0.5000000E-15
  1.000000000000000E-004
  CAR 
 unknown system                          
     94    120     56
 
  0.5000000E+00  0.0000000E+00  0.0000000E+00  0.8333333E-02
    1      -51.385989    -51.381206   1.000000   1.000000
    2      -51.321846    -51.317371   1.000000   1.000000
    3      -51.321817    -51.317337   1.000000   1.000000
    4      -46.461840    -46.466543   1.000000   1.000000
    5      -46.415100    -46.419591   1.000000   1.000000
    6      -46.415073    -46.419563   1.000000   1.000000
    7      -16.072378    -16.072470   1.000000   1.000000
    8      -16.071399    -16.071344   1.000000   1.000000
    9      -16.058599    -16.058696   1.000000   1.000000
   10      -16.057545    -16.057432   1.000000   1.000000
   11      -16.015897    -16.015860   1.000000   1.000000
   12      -16.015060    -16.015098   1.000000   1.000000
   13      -16.004031    -16.003994   1.000000   1.000000
   14      -16.002914    -16.002960   1.000000   1.000000
   15      -15.992506    -15.992656   1.000000   1.000000
   16      -15.991608    -15.991422   1.000000   1.000000
   17      -11.699152    -11.697802   1.000000   1.000000
   18      -11.657600    -11.658554   1.000000   1.000000
   19      -10.742066    -10.740323   1.000000   1.000000
   20      -10.653216    -10.654190   1.000000   1.000000
   21      -10.590206    -10.590149   1.000000   1.000000
   22      -10.537354    -10.538097   1.000000   1.000000
   23       -3.444551     -3.444278   1.000000   1.000000
   24       -3.423562     -3.423256   1.000000   1.000000
   25       -1.655407     -1.651690   1.000000   1.000000
   26       -1.612347     -1.608748   1.000000   1.000000
   27       -1.467896     -1.463725   1.000000   1.000000
   28       -1.436851     -1.432823   1.000000   1.000000
   29       -1.203362     -1.199330   1.000000   1.000000
   30        1.090936      1.090351   1.000000   1.000000
   31        1.278115      1.278415   1.000000   1.000000
   32        1.760139      1.760249   1.000000   1.000000
   33        2.048040      2.047936   1.000000   1.000000
   34        2.344704      2.344332   1.000000   1.000000
   35        2.573734      2.573328   1.000000   1.000000
   36        2.827519      2.828447   1.000000   1.000000
   37        3.082536      3.081736   1.000000   1.000000
   38        3.692497      3.691749   1.000000   1.000000
   39        4.109278      4.109777   1.000000   1.000000
   40        4.311369      4.311112   1.000000   1.000000
   41        4.415971      4.414812   1.000000   1.000000
   42        4.612620      4.612906   1.000000   1.000000
   43        4.719020      4.718652   1.000000   1.000000
   44        5.016984      5.018089   1.000000   1.000000
   45        5.182309      5.182752   1.000000   1.000000
   46        5.470444      5.470055   1.000000   1.000000
   47        5.721274      5.721505   1.000000   1.000000
   48        8.613377      8.610083   0.000000   0.000000
   49        8.811160      8.807566   0.000000   0.000000
   50        8.962139      8.958491   0.000000   0.000000
   51        9.188436      9.185259   0.000000   0.000000
   52        9.256432      9.253184   0.000000   0.000000
   53        9.905540      9.906290   0.000000   0.000000
   54       10.091272     10.089892   0.000000   0.000000
   55       11.184760     11.184574   0.000000   0.000000
   56       11.267664     11.267578   0.000000   0.000000
 
  0.5000000E+00  0.2173913E-01  0.0000000E+00  0.8333333E-02
    1      -51.385990    -51.381207   1.000000   1.000000
    2      -51.321845    -51.317369   1.000000   1.000000
    3      -51.321814    -51.317336   1.000000   1.000000
    4      -46.461840    -46.466543   1.000000   1.000000
    5      -46.415097    -46.419589   1.000000   1.000000
    6      -46.415072    -46.419560   1.000000   1.000000
    7      -16.073437    -16.073114   1.000000   1.000000
    8      -16.070892    -16.071381   1.000000   1.000000
    9      -16.059201    -16.058706   1.000000   1.000000
   10      -16.056402    -16.056756   1.000000   1.000000
   11      -16.015968    -16.015847   1.000000   1.000000
   12      -16.015047    -16.015182   1.000000   1.000000
   13      -16.004008    -16.004019   1.000000   1.000000
   14      -16.002962    -16.002931   1.000000   1.000000
   15      -15.992686    -15.992829   1.000000   1.000000
   16      -15.991264    -15.991101   1.000000   1.000000
   17      -11.705554    -11.703973   1.000000   1.000000
   18      -11.649587    -11.650802   1.000000   1.000000
   19      -10.742814    -10.741546   1.000000   1.000000
   20      -10.654846    -10.654047   1.000000   1.000000
   21      -10.590540    -10.592959   1.000000   1.000000
   22      -10.536566    -10.536090   1.000000   1.000000
   23       -3.452706     -3.451952   1.000000   1.000000
   24       -3.415725     -3.415945   1.000000   1.000000
   25       -1.657855     -1.654319   1.000000   1.000000
   26       -1.611056     -1.607012   1.000000   1.000000
   27       -1.469967     -1.467366   1.000000   1.000000
   28       -1.433511     -1.428568   1.000000   1.000000
   29       -1.203741     -1.199632   1.000000   1.000000
   30        1.086523      1.088958   1.000000   1.000000
   31        1.283836      1.283637   1.000000   1.000000
   32        1.755292      1.761198   1.000000   1.000000
   33        2.053471      2.047882   1.000000   1.000000
   34        2.352514      2.343649   1.000000   1.000000
   35        2.573387      2.573670   1.000000   1.000000
   36        2.828583      2.828247   1.000000   1.000000
   37        3.082836      3.088782   1.000000   1.000000
   38        3.692022      3.689195   1.000000   1.000000
   39        4.105003      4.109638   1.000000   1.000000
   40        4.309909      4.304457   1.000000   1.000000
   41        4.415458      4.417107   1.000000   1.000000
   42        4.612502      4.613288   1.000000   1.000000
   43        4.718173      4.718181   1.000000   1.000000
   44        5.012857      5.014779   1.000000   1.000000
   45        5.181980      5.184065   1.000000   1.000000
   46        5.471254      5.470227   1.000000   1.000000
   47        5.722525      5.719874   1.000000   1.000000
   48        8.615449      8.611287   0.000000   0.000000
   49        8.811684      8.807889   0.000000   0.000000
   50        8.961617      8.958467   0.000000   0.000000
   51        9.187724      9.181389   0.000000   0.000000
   52        9.255105      9.257060   0.000000   0.000000
   53        9.905541      9.907911   0.000000   0.000000
   54       10.092436     10.089317   0.000000   0.000000
   55       11.167406     11.162058   0.000000   0.000000
   56       11.283039     11.287282   0.000000   0.000000
 
  0.5000000E+00  0.4347826E-01  0.0000000E+00  0.8333333E-02
    1      -51.385989    -51.381206   1.000000   1.000000
    2      -51.321843    -51.317365   1.000000   1.000000
    3      -51.321810    -51.317334   1.000000   1.000000
    4      -46.461839    -46.466542   1.000000   1.000000
    5      -46.415093    -46.419587   1.000000   1.000000
    6      -46.415070    -46.419556   1.000000   1.000000
    7      -16.075380    -16.074842   1.000000   1.000000
    8      -16.070518    -16.071466   1.000000   1.000000
    9      -16.059598    -16.058539   1.000000   1.000000
   10      -16.054504    -16.055178   1.000000   1.000000
   11      -16.016187    -16.015821   1.000000   1.000000
   12      -16.015020    -16.015435   1.000000   1.000000
   13      -16.003951    -16.004099   1.000000   1.000000
   14      -16.003102    -16.002856   1.000000   1.000000
   15      -15.992960    -15.993129   1.000000   1.000000
   16      -15.990534    -15.990385   1.000000   1.000000
   17      -11.717991    -11.715909   1.000000   1.000000
   18      -11.632442    -11.634245   1.000000   1.000000
   19      -10.745145    -10.745142   1.000000   1.000000
   20      -10.659490    -10.653752   1.000000   1.000000
   21      -10.591709    -10.600404   1.000000   1.000000
   22      -10.534278    -10.531083   1.000000   1.000000
   23       -3.467040     -3.465710   1.000000   1.000000
   24       -3.402356     -3.403282   1.000000   1.000000
   25       -1.664315     -1.661149   1.000000   1.000000
   26       -1.608013     -1.602843   1.000000   1.000000
   27       -1.474388     -1.475046   1.000000   1.000000
   28       -1.425368     -1.419064   1.000000   1.000000
   29       -1.204881     -1.200551   1.000000   1.000000
   30        1.074848      1.085289   1.000000   1.000000
   31        1.299413      1.298718   1.000000   1.000000
   32        1.742884      1.764030   1.000000   1.000000
   33        2.067678      2.047735   1.000000   1.000000
   34        2.375688      2.341645   1.000000   1.000000
   35        2.572394      2.574988   1.000000   1.000000
   36        2.831755      2.827963   1.000000   1.000000
   37        3.083779      3.109179   1.000000   1.000000
   38        3.690677      3.681799   1.000000   1.000000
   39        4.092827      4.108976   1.000000   1.000000
   40        4.304384      4.286398   1.000000   1.000000
   41        4.414358      4.422334   1.000000   1.000000
   42        4.612072      4.614263   1.000000   1.000000
   43        4.715932      4.716703   1.000000   1.000000
   44        5.001103      5.005713   1.000000   1.000000
   45        5.180697      5.187000   1.000000   1.000000
   46        5.473235      5.470878   1.000000   1.000000
   47        5.726307      5.715131   1.000000   1.000000
   48        8.621585      8.614827   0.000000   0.000000
   49        8.813253      8.808851   0.000000   0.000000
   50        8.960055      8.958306   0.000000   0.000000
   51        9.184920      9.171481   0.000000   0.000000
   52        9.251914      9.266961   0.000000   0.000000
   53        9.904864      9.912742   0.000000   0.000000
   54       10.096355     10.087397   0.000000   0.000000
   55       11.133282     11.119839   0.000000   0.000000
   56       11.311665     11.321060   0.000000   0.000000
 
  0.5000000E+00  0.6521739E-01  0.0000000E+00  0.8333333E-02
    1      -51.385990    -51.381207   1.000000   1.000000
    2      -51.321843    -51.317364   1.000000   1.000000
    3      -51.321809    -51.317334   1.000000   1.000000
    4      -46.461840    -46.466543   1.000000   1.000000
    5      -46.415091    -46.419587   1.000000   1.000000
    6      -46.415070    -46.419556   1.000000   1.000000
    7      -16.077790    -16.077246   1.000000   1.000000
    8      -16.070443    -16.071581   1.000000   1.000000
    9      -16.059524    -16.058153   1.000000   1.000000
   10      -16.052379    -16.053186   1.000000   1.000000
   11      -16.016541    -16.015913   1.000000   1.000000
   12      -16.014976    -16.015705   1.000000   1.000000
   13      -16.003874    -16.004223   1.000000   1.000000
   14      -16.003314    -16.002757   1.000000   1.000000
   15      -15.993185    -15.993400   1.000000   1.000000
   16      -15.989587    -15.989448   1.000000   1.000000
   17      -11.730964    -11.728297   1.000000   1.000000
   18      -11.611732    -11.614262   1.000000   1.000000
   19      -10.749124    -10.750981   1.000000   1.000000
   20      -10.666581    -10.653529   1.000000   1.000000
   21      -10.593991    -10.610728   1.000000   1.000000
   22      -10.530728    -10.524751   1.000000   1.000000
   23       -3.482921     -3.481101   1.000000   1.000000
   24       -3.388077     -3.389702   1.000000   1.000000
   25       -1.673283     -1.670482   1.000000   1.000000
   26       -1.604581     -1.597864   1.000000   1.000000
   27       -1.479014     -1.483527   1.000000   1.000000
   28       -1.414816     -1.407597   1.000000   1.000000
   29       -1.206753     -1.202099   1.000000   1.000000
   30        1.059035      1.080445   1.000000   1.000000
   31        1.321625      1.322316   1.000000   1.000000
   32        1.727523      1.768698   1.000000   1.000000
   33        2.086475      2.047538   1.000000   1.000000
   34        2.413134      2.338479   1.000000   1.000000
   35        2.570972      2.578013   1.000000   1.000000
   36        2.836981      2.828285   1.000000   1.000000
   37        3.085490      3.141065   1.000000   1.000000
   38        3.688712      3.670315   1.000000   1.000000
   39        4.074310      4.107146   1.000000   1.000000
   40        4.292291      4.260269   1.000000   1.000000
   41        4.413548      4.427861   1.000000   1.000000
   42        4.611137      4.615264   1.000000   1.000000
   43        4.713000      4.714106   1.000000   1.000000
   44        4.983253      4.992906   1.000000   1.000000
   45        5.177863      5.189172   1.000000   1.000000
   46        5.475236      5.472392   1.000000   1.000000
   47        5.732630      5.707708   1.000000   1.000000
   48        8.631524      8.620518   0.000000   0.000000
   49        8.815885      8.810458   0.000000   0.000000
   50        8.957512      8.957771   0.000000   0.000000
   51        9.178162      9.158069   0.000000   0.000000
   52        9.249109      9.280231   0.000000   0.000000
   53        9.901752      9.920666   0.000000   0.000000
   54       10.104140     10.083644   0.000000   0.000000
   55       11.096118     11.075082   0.000000   0.000000
   56       11.339493     11.352492   0.000000   0.000000
 
  0.5000000E+00  0.8695652E-01  0.0000000E+00  0.8333333E-02
    1      -51.385991    -51.381208   1.000000   1.000000
    2      -51.321844    -51.317364   1.000000   1.000000
    3      -51.321810    -51.317335   1.000000   1.000000
    4      -46.461841    -46.466544   1.000000   1.000000
    5      -46.415092    -46.419588   1.000000   1.000000
    6      -46.415071    -46.419556   1.000000   1.000000
    7      -16.080495    -16.080004   1.000000   1.000000
    8      -16.070550    -16.071714   1.000000   1.000000
    9      -16.059085    -16.057589   1.000000   1.000000
   10      -16.050190    -16.051049   1.000000   1.000000
   11      -16.017005    -16.016422   1.000000   1.000000
   12      -16.014912    -16.015656   1.000000   1.000000
   13      -16.003784    -16.004380   1.000000   1.000000
   14      -16.003567    -16.002640   1.000000   1.000000
   15      -15.993352    -15.993612   1.000000   1.000000
   16      -15.988465    -15.988339   1.000000   1.000000
   17      -11.742973    -11.739727   1.000000   1.000000
   18      -11.588995    -11.592300   1.000000   1.000000
   19      -10.754857    -10.758774   1.000000   1.000000
   20      -10.675372    -10.653780   1.000000   1.000000
   21      -10.597493    -10.622565   1.000000   1.000000
   22      -10.526212    -10.518122   1.000000   1.000000
   23       -3.499760     -3.497533   1.000000   1.000000
   24       -3.373434     -3.375744   1.000000   1.000000
   25       -1.683676     -1.681212   1.000000   1.000000
   26       -1.601589     -1.593075   1.000000   1.000000
   27       -1.482967     -1.491599   1.000000   1.000000
   28       -1.403103     -1.395415   1.000000   1.000000
   29       -1.209306     -1.204278   1.000000   1.000000
   30        1.041776      1.075430   1.000000   1.000000
   31        1.347616      1.353071   1.000000   1.000000
   32        1.713644      1.775125   1.000000   1.000000
   33        2.106571      2.047353   1.000000   1.000000
   34        2.462335      2.334522   1.000000   1.000000
   35        2.569782      2.583585   1.000000   1.000000
   36        2.844162      2.829859   1.000000   1.000000
   37        3.088138      3.182108   1.000000   1.000000
   38        3.686545      3.655873   1.000000   1.000000
   39        4.051233      4.103305   1.000000   1.000000
   40        4.271734      4.228510   1.000000   1.000000
   41        4.413350      4.432250   1.000000   1.000000
   42        4.609428      4.615246   1.000000   1.000000
   43        4.710059      4.710480   1.000000   1.000000
   44        4.961105      4.978536   1.000000   1.000000
   45        5.173085      5.187916   1.000000   1.000000
   46        5.475902      5.475256   1.000000   1.000000
   47        5.741302      5.698278   1.000000   1.000000
   48        8.644883      8.628067   0.000000   0.000000
   49        8.819582      8.812725   0.000000   0.000000
   50        8.954097      8.956465   0.000000   0.000000
   51        9.165411      9.142634   0.000000   0.000000
   52        9.249275      9.295347   0.000000   0.000000
   53        9.894169      9.931282   0.000000   0.000000
   54       10.116916     10.077534   0.000000   0.000000
   55       11.060337     11.033044   0.000000   0.000000
   56       11.362855     11.377449   0.000000   0.000000
 
  0.5000000E+00  0.1086957E+00  0.0000000E+00  0.8333333E-02
    1      -51.385991    -51.381208   1.000000   1.000000
    2      -51.321845    -51.317366   1.000000   1.000000
    3      -51.321811    -51.317335   1.000000   1.000000
    4      -46.461842    -46.466545   1.000000   1.000000
    5      -46.415094    -46.419588   1.000000   1.000000
    6      -46.415072    -46.419559   1.000000   1.000000
    7      -16.083380    -16.082949   1.000000   1.000000
    8      -16.070750    -16.071853   1.000000   1.000000
    9      -16.058392    -16.056882   1.000000   1.000000
   10      -16.048045    -16.048925   1.000000   1.000000
   11      -16.017551    -16.017046   1.000000   1.000000
   12      -16.014830    -16.015558   1.000000   1.000000
   13      -16.003887    -16.004555   1.000000   1.000000
   14      -16.003637    -16.002519   1.000000   1.000000
   15      -15.993480    -15.993776   1.000000   1.000000
   16      -15.987190    -15.987081   1.000000   1.000000
   17      -11.753563    -11.749786   1.000000   1.000000
   18      -11.564784    -11.568873   1.000000   1.000000
   19      -10.762476    -10.768293   1.000000   1.000000
   20      -10.685270    -10.655489   1.000000   1.000000
   21      -10.602154    -10.634522   1.000000   1.000000
   22      -10.521127    -10.511704   1.000000   1.000000
   23       -3.517457     -3.514907   1.000000   1.000000
   24       -3.358492     -3.361456   1.000000   1.000000
   25       -1.694838     -1.692720   1.000000   1.000000
   26       -1.599347     -1.588982   1.000000   1.000000
   27       -1.486002     -1.498694   1.000000   1.000000
   28       -1.390995     -1.383146   1.000000   1.000000
   29       -1.212443     -1.207061   1.000000   1.000000
   30        1.024861      1.070817   1.000000   1.000000
   31        1.375341      1.389941   1.000000   1.000000
   32        1.704540      1.783176   1.000000   1.000000
   33        2.126336      2.047242   1.000000   1.000000
   34        2.517396      2.330383   1.000000   1.000000
   35        2.572080      2.592346   1.000000   1.000000
   36        2.853149      2.833077   1.000000   1.000000
   37        3.091888      3.229871   1.000000   1.000000
   38        3.684756      3.639892   1.000000   1.000000
   39        4.025156      4.096621   1.000000   1.000000
   40        4.242542      4.192702   1.000000   1.000000
   41        4.413114      4.434965   1.000000   1.000000
   42        4.606575      4.612728   1.000000   1.000000
   43        4.707380      4.706381   1.000000   1.000000
   44        4.936357      4.964409   1.000000   1.000000
   45        5.166386      5.181033   1.000000   1.000000
   46        5.474163      5.479814   1.000000   1.000000
   47        5.751761      5.687679   1.000000   1.000000
   48        8.661140      8.637098   0.000000   0.000000
   49        8.824300      8.815675   0.000000   0.000000
   50        8.949976      8.953783   0.000000   0.000000
   51        9.146095      9.125994   0.000000   0.000000
   52        9.253568      9.311521   0.000000   0.000000
   53        9.880728      9.943369   0.000000   0.000000
   54       10.135038     10.069185   0.000000   0.000000
   55       11.028042     10.996615   0.000000   0.000000
   56       11.380185     11.394608   0.000000   0.000000
 
  0.5000000E+00  0.1304348E+00  0.0000000E+00  0.8333333E-02
    1      -51.385991    -51.381208   1.000000   1.000000
    2      -51.321845    -51.317365   1.000000   1.000000
    3      -51.321810    -51.317336   1.000000   1.000000
    4      -46.461841    -46.466544   1.000000   1.000000
    5      -46.415092    -46.419588   1.000000   1.000000
    6      -46.415072    -46.419557   1.000000   1.000000
    7      -16.086347    -16.085969   1.000000   1.000000
    8      -16.070978    -16.071983   1.000000   1.000000
    9      -16.057526    -16.056059   1.000000   1.000000
   10      -16.046013    -16.046900   1.000000   1.000000
   11      -16.018150    -16.017726   1.000000   1.000000
   12      -16.014729    -16.015432   1.000000   1.000000
   13      -16.004169    -16.004737   1.000000   1.000000
   14      -16.003524    -16.002407   1.000000   1.000000
   15      -15.993561    -15.993880   1.000000   1.000000
   16      -15.985786    -15.985694   1.000000   1.000000
   17      -11.762522    -11.758299   1.000000   1.000000
   18      -11.539413    -11.544262   1.000000   1.000000
   19      -10.772084    -10.779305   1.000000   1.000000
   20      -10.695786    -10.661388   1.000000   1.000000
   21      -10.607716    -10.643569   1.000000   1.000000
   22      -10.515789    -10.505710   1.000000   1.000000
   23       -3.535967     -3.533183   1.000000   1.000000
   24       -3.343219     -3.346782   1.000000   1.000000
   25       -1.706364     -1.704628   1.000000   1.000000
   26       -1.597872     -1.585851   1.000000   1.000000
   27       -1.488121     -1.504414   1.000000   1.000000
   28       -1.379115     -1.371271   1.000000   1.000000
   29       -1.216006     -1.210371   1.000000   1.000000
   30        1.009406      1.066780   1.000000   1.000000
   31        1.403397      1.432224   1.000000   1.000000
   32        1.702427      1.792657   1.000000   1.000000
   33        2.145126      2.047273   1.000000   1.000000
   34        2.550739      2.326844   1.000000   1.000000
   35        2.602582      2.604622   1.000000   1.000000
   36        2.863742      2.838111   1.000000   1.000000
   37        3.096828      3.281738   1.000000   1.000000
   38        3.684088      3.624144   1.000000   1.000000
   39        3.997297      4.086323   1.000000   1.000000
   40        4.205944      4.154141   1.000000   1.000000
   41        4.411799      4.435597   1.000000   1.000000
   42        4.601988      4.606261   1.000000   1.000000
   43        4.704721      4.702801   1.000000   1.000000
   44        4.910567      4.951787   1.000000   1.000000
   45        5.158155      5.167177   1.000000   1.000000
   46        5.469500      5.485954   1.000000   1.000000
   47        5.763073      5.676847   1.000000   1.000000
   48        8.679683      8.647163   0.000000   0.000000
   49        8.829895      8.819333   0.000000   0.000000
   50        8.945396      8.948920   0.000000   0.000000
   51        9.121046      9.108856   0.000000   0.000000
   52        9.261734      9.328279   0.000000   0.000000
   53        9.861136      9.953509   0.000000   0.000000
   54       10.157821     10.060992   0.000000   0.000000
   55       11.000345     10.967687   0.000000   0.000000
   56       11.390392     11.402444   0.000000   0.000000
 
  0.5000000E+00  0.1521739E+00  0.0000000E+00  0.8333333E-02
    1      -51.385992    -51.381209   1.000000   1.000000
    2      -51.321844    -51.317364   1.000000   1.000000
    3      -51.321809    -51.317335   1.000000   1.000000
    4      -46.461843    -46.466545   1.000000   1.000000
    5      -46.415091    -46.419588   1.000000   1.000000
    6      -46.415071    -46.419555   1.000000   1.000000
    7      -16.089343    -16.089008   1.000000   1.000000
    8      -16.071206    -16.072101   1.000000   1.000000
    9      -16.056541    -16.055143   1.000000   1.000000
   10      -16.044145    -16.045031   1.000000   1.000000
   11      -16.018772    -16.018425   1.000000   1.000000
   12      -16.014614    -16.015288   1.000000   1.000000
   13      -16.004458    -16.004927   1.000000   1.000000
   14      -16.003415    -16.002322   1.000000   1.000000
   15      -15.993598    -15.993926   1.000000   1.000000
   16      -15.984295    -15.984217   1.000000   1.000000
   17      -11.769850    -11.765260   1.000000   1.000000
   18      -11.513109    -11.518676   1.000000   1.000000
   19      -10.783753    -10.791685   1.000000   1.000000
   20      -10.706670    -10.673264   1.000000   1.000000
   21      -10.613942    -10.647786   1.000000   1.000000
   22      -10.510515    -10.500314   1.000000   1.000000
   23       -3.555241     -3.552313   1.000000   1.000000
   24       -3.327602     -3.331685   1.000000   1.000000
   25       -1.717991     -1.716684   1.000000   1.000000
   26       -1.597036     -1.583805   1.000000   1.000000
   27       -1.489425     -1.508475   1.000000   1.000000
   28       -1.368092     -1.360286   1.000000   1.000000
   29       -1.219758     -1.214044   1.000000   1.000000
   30        0.996074      1.063211   1.000000   1.000000
   31        1.430916      1.479439   1.000000   1.000000
   32        1.708592      1.803298   1.000000   1.000000
   33        2.162537      2.047533   1.000000   1.000000
   34        2.555223      2.324703   1.000000   1.000000
   35        2.665767      2.620465   1.000000   1.000000
   36        2.875687      2.844990   1.000000   1.000000
   37        3.102885      3.334434   1.000000   1.000000
   38        3.685403      3.611084   1.000000   1.000000
   39        3.968560      4.071141   1.000000   1.000000
   40        4.163849      4.114749   1.000000   1.000000
   41        4.408599      4.433330   1.000000   1.000000
   42        4.594803      4.595424   1.000000   1.000000
   43        4.701490      4.700567   1.000000   1.000000
   44        4.885220      4.941369   1.000000   1.000000
   45        5.148995      5.145979   1.000000   1.000000
   46        5.461920      5.492928   1.000000   1.000000
   47        5.774097      5.666782   1.000000   1.000000
   48        8.699822      8.657747   0.000000   0.000000
   49        8.836038      8.823702   0.000000   0.000000
   50        8.940719      8.940892   0.000000   0.000000
   51        9.091338      9.092050   0.000000   0.000000
   52        9.273168      9.345251   0.000000   0.000000
   53        9.835981      9.954081   0.000000   0.000000
   54       10.183866     10.059889   0.000000   0.000000
   55       10.978163     10.947048   0.000000   0.000000
   56       11.396543     11.402938   0.000000   0.000000
 
  0.5000000E+00  0.1739130E+00  0.0000000E+00  0.8333333E-02
    1      -51.385991    -51.381209   1.000000   1.000000
    2      -51.321843    -51.317363   1.000000   1.000000
    3      -51.321808    -51.317334   1.000000   1.000000
    4      -46.461841    -46.466544   1.000000   1.000000
    5      -46.415090    -46.419586   1.000000   1.000000
    6      -46.415070    -46.419554   1.000000   1.000000
    7      -16.092318    -16.092022   1.000000   1.000000
    8      -16.071414    -16.072198   1.000000   1.000000
    9      -16.055470    -16.054154   1.000000   1.000000
   10      -16.042474    -16.043352   1.000000   1.000000
   11      -16.019388    -16.019114   1.000000   1.000000
   12      -16.014483    -16.015124   1.000000   1.000000
   13      -16.004740    -16.005119   1.000000   1.000000
   14      -16.003328    -16.002279   1.000000   1.000000
   15      -15.993591    -15.993913   1.000000   1.000000
   16      -15.982725    -15.982660   1.000000   1.000000
   17      -11.775507    -11.770642   1.000000   1.000000
   18      -11.486080    -11.492319   1.000000   1.000000
   19      -10.797372    -10.805274   1.000000   1.000000
   20      -10.717736    -10.688002   1.000000   1.000000
   21      -10.620530    -10.650025   1.000000   1.000000
   22      -10.505481    -10.495522   1.000000   1.000000
   23       -3.575176     -3.572193   1.000000   1.000000
   24       -3.311656     -3.316156   1.000000   1.000000
   25       -1.729516     -1.728685   1.000000   1.000000
   26       -1.596626     -1.582805   1.000000   1.000000
   27       -1.490058     -1.510744   1.000000   1.000000
   28       -1.358582     -1.350737   1.000000   1.000000
   29       -1.223345     -1.217790   1.000000   1.000000
   30        0.985249      1.059871   1.000000   1.000000
   31        1.457636      1.531226   1.000000   1.000000
   32        1.723431      1.814779   1.000000   1.000000
   33        2.178069      2.048191   1.000000   1.000000
   34        2.557185      2.324623   1.000000   1.000000
   35        2.733011      2.639770   1.000000   1.000000
   36        2.888718      2.853667   1.000000   1.000000
   37        3.109762      3.383047   1.000000   1.000000
   38        3.689551      3.604659   1.000000   1.000000
   39        3.939606      4.046741   1.000000   1.000000
   40        4.118458      4.079755   1.000000   1.000000
   41        4.403133      4.426759   1.000000   1.000000
   42        4.584089      4.581597   1.000000   1.000000
   43        4.696901      4.699721   1.000000   1.000000
   44        4.861761      4.933359   1.000000   1.000000
   45        5.139571      5.117953   1.000000   1.000000
   46        5.451791      5.499383   1.000000   1.000000
   47        5.783714      5.658531   1.000000   1.000000
   48        8.720825      8.668289   0.000000   0.000000
   49        8.842140      8.828697   0.000000   0.000000
   50        8.936473      8.928799   0.000000   0.000000
   51        9.057839      9.076539   0.000000   0.000000
   52        9.287429      9.362162   0.000000   0.000000
   53        9.806359      9.938073   0.000000   0.000000
   54       10.211596     10.072800   0.000000   0.000000
   55       10.960411     10.934116   0.000000   0.000000
   56       11.393351     11.396649   0.000000   0.000000
 