   10   10    1    2
  0.1285713E+02  0.5706178E-09  0.5706178E-09  0.5706178E-09  0.5000000E-15
  1.000000000000000E-004
  CAR 
 unknown system                          
     94    120     56
 
  0.5000000E+00  0.0000000E+00  0.0000000E+00  0.8333333E-02
    1      -50.606557    -50.601767   1.000000   1.000000
    2      -50.547588    -50.543105   1.000000   1.000000
    3      -50.547558    -50.543071   1.000000   1.000000
    4      -45.904437    -45.909152   1.000000   1.000000
    5      -45.860364    -45.864860   1.000000   1.000000
    6      -45.860335    -45.864833   1.000000   1.000000
    7      -16.170380    -16.170478   1.000000   1.000000
    8      -16.169590    -16.169538   1.000000   1.000000
    9      -16.157033    -16.157113   1.000000   1.000000
   10      -16.155737    -16.155640   1.000000   1.000000
   11      -16.113982    -16.113932   1.000000   1.000000
   12      -16.112950    -16.113001   1.000000   1.000000
   13      -16.102406    -16.102350   1.000000   1.000000
   14      -16.101061    -16.101134   1.000000   1.000000
   15      -16.090843    -16.091014   1.000000   1.000000
   16      -16.089622    -16.089404   1.000000   1.000000
   17      -11.769859    -11.768539   1.000000   1.000000
   18      -11.724768    -11.725736   1.000000   1.000000
   19      -10.793816    -10.791799   1.000000   1.000000
   20      -10.702278    -10.703628   1.000000   1.000000
   21      -10.659959    -10.659305   1.000000   1.000000
   22      -10.608842    -10.610228   1.000000   1.000000
   23       -3.462577     -3.462557   1.000000   1.000000
   24       -3.450568     -3.450425   1.000000   1.000000
   25       -0.043689     -0.040624   1.000000   1.000000
   26       -0.001293      0.002020   1.000000   1.000000
   27        0.187181      0.190215   1.000000   1.000000
   28        0.281173      0.284651   1.000000   1.000000
   29        0.622589      0.626176   1.000000   1.000000
   30        1.136011      1.135983   1.000000   1.000000
   31        1.388781      1.389019   1.000000   1.000000
   32        1.738680      1.738919   1.000000   1.000000
   33        2.092613      2.092678   1.000000   1.000000
   34        2.507518      2.507551   1.000000   1.000000
   35        2.659458      2.659848   1.000000   1.000000
   36        2.890255      2.890074   1.000000   1.000000
   37        3.050683      3.051013   1.000000   1.000000
   38        3.755910      3.755198   1.000000   1.000000
   39        4.095241      4.096022   1.000000   1.000000
   40        4.224378      4.223997   1.000000   1.000000
   41        4.323599      4.322539   1.000000   1.000000
   42        4.550644      4.550835   1.000000   1.000000
   43        4.638889      4.638540   1.000000   1.000000
   44        5.181112      5.180836   1.000000   1.000000
   45        5.234234      5.235561   1.000000   1.000000
   46        5.589739      5.590127   1.000000   1.000000
   47        5.800972      5.801504   1.000000   1.000000
   48        7.993557      7.990074   0.000000   0.000000
   49        8.102706      8.099126   0.000000   0.000000
   50        8.262630      8.259167   0.000000   0.000000
   51        8.911744      8.908619   0.000000   0.000000
   52        8.997556      8.994464   0.000000   0.000000
   53        9.823350      9.824235   0.000000   0.000000
   54        9.957002      9.955766   0.000000   0.000000
   55       11.107804     11.107749   0.000000   0.000000
   56       11.171020     11.170975   0.000000   0.000000
 
  0.5000000E+00  0.2173913E-01  0.0000000E+00  0.8333333E-02
    1      -50.606557    -50.601767   1.000000   1.000000
    2      -50.547587    -50.543102   1.000000   1.000000
    3      -50.547556    -50.543069   1.000000   1.000000
    4      -45.904437    -45.909153   1.000000   1.000000
    5      -45.860360    -45.864858   1.000000   1.000000
    6      -45.860334    -45.864830   1.000000   1.000000
    7      -16.171527    -16.171135   1.000000   1.000000
    8      -16.168987    -16.169594   1.000000   1.000000
    9      -16.157639    -16.156989   1.000000   1.000000
   10      -16.154598    -16.155063   1.000000   1.000000
   11      -16.114055    -16.113918   1.000000   1.000000
   12      -16.112939    -16.113092   1.000000   1.000000
   13      -16.102384    -16.102371   1.000000   1.000000
   14      -16.101104    -16.101098   1.000000   1.000000
   15      -16.090935    -16.091117   1.000000   1.000000
   16      -16.089370    -16.089159   1.000000   1.000000
   17      -11.775683    -11.774360   1.000000   1.000000
   18      -11.717304    -11.718295   1.000000   1.000000
   19      -10.794790    -10.793141   1.000000   1.000000
   20      -10.705139    -10.703640   1.000000   1.000000
   21      -10.659050    -10.662504   1.000000   1.000000
   22      -10.607874    -10.607609   1.000000   1.000000
   23       -3.472905     -3.472691   1.000000   1.000000
   24       -3.440601     -3.440666   1.000000   1.000000
   25       -0.052017     -0.047406   1.000000   1.000000
   26        0.006326      0.007420   1.000000   1.000000
   27        0.186929      0.187443   1.000000   1.000000
   28        0.283276      0.288098   1.000000   1.000000
   29        0.622367      0.626026   1.000000   1.000000
   30        1.132002      1.136014   1.000000   1.000000
   31        1.392464      1.393255   1.000000   1.000000
   32        1.732649      1.740075   1.000000   1.000000
   33        2.103425      2.093934   1.000000   1.000000
   34        2.510817      2.508631   1.000000   1.000000
   35        2.660146      2.654779   1.000000   1.000000
   36        2.890724      2.889995   1.000000   1.000000
   37        3.051302      3.058898   1.000000   1.000000
   38        3.753938      3.751169   1.000000   1.000000
   39        4.090637      4.096837   1.000000   1.000000
   40        4.225393      4.219175   1.000000   1.000000
   41        4.322507      4.323797   1.000000   1.000000
   42        4.550089      4.552347   1.000000   1.000000
   43        4.638510      4.638612   1.000000   1.000000
   44        5.180780      5.168294   1.000000   1.000000
   45        5.231673      5.248053   1.000000   1.000000
   46        5.589174      5.587879   1.000000   1.000000
   47        5.801848      5.799372   1.000000   1.000000
   48        7.995080      7.990843   0.000000   0.000000
   49        8.103115      8.099386   0.000000   0.000000
   50        8.262215      8.259080   0.000000   0.000000
   51        8.911332      8.905125   0.000000   0.000000
   52        8.996648      8.998425   0.000000   0.000000
   53        9.823355      9.825767   0.000000   0.000000
   54        9.958454      9.955383   0.000000   0.000000
   55       11.086134     11.082312   0.000000   0.000000
   56       11.190607     11.193764   0.000000   0.000000
 
  0.5000000E+00  0.4347826E-01  0.0000000E+00  0.8333333E-02
    1      -50.606557    -50.601767   1.000000   1.000000
    2      -50.547585    -50.543099   1.000000   1.000000
    3      -50.547552    -50.543067   1.000000   1.000000
    4      -45.904437    -45.909152   1.000000   1.000000
    5      -45.860356    -45.864856   1.000000   1.000000
    6      -45.860332    -45.864826   1.000000   1.000000
    7      -16.173496    -16.172915   1.000000   1.000000
    8      -16.168569    -16.169690   1.000000   1.000000
    9      -16.158085    -16.156685   1.000000   1.000000
   10      -16.152659    -16.153553   1.000000   1.000000
   11      -16.114280    -16.113887   1.000000   1.000000
   12      -16.112914    -16.113367   1.000000   1.000000
   13      -16.102333    -16.102437   1.000000   1.000000
   14      -16.101230    -16.101010   1.000000   1.000000
   15      -16.091105    -16.091327   1.000000   1.000000
   16      -16.088752    -16.088551   1.000000   1.000000
   17      -11.787405    -11.785962   1.000000   1.000000
   18      -11.700787    -11.701954   1.000000   1.000000
   19      -10.797791    -10.797087   1.000000   1.000000
   20      -10.712610    -10.703975   1.000000   1.000000
   21      -10.657437    -10.670466   1.000000   1.000000
   22      -10.604975    -10.601255   1.000000   1.000000
   23       -3.488030     -3.487647   1.000000   1.000000
   24       -3.426568     -3.426845   1.000000   1.000000
   25       -0.069027     -0.062449   1.000000   1.000000
   26        0.021112      0.018342   1.000000   1.000000
   27        0.186412      0.180066   1.000000   1.000000
   28        0.289362      0.297632   1.000000   1.000000
   29        0.621698      0.625493   1.000000   1.000000
   30        1.120839      1.136060   1.000000   1.000000
   31        1.402436      1.405840   1.000000   1.000000
   32        1.717991      1.743455   1.000000   1.000000
   33        2.132015      2.097801   1.000000   1.000000
   34        2.521014      2.511494   1.000000   1.000000
   35        2.662342      2.641134   1.000000   1.000000
   36        2.892170      2.889829   1.000000   1.000000
   37        3.053196      3.081239   1.000000   1.000000
   38        3.748239      3.739649   1.000000   1.000000
   39        4.077811      4.098537   1.000000   1.000000
   40        4.226540      4.205778   1.000000   1.000000
   41        4.319876      4.327121   1.000000   1.000000
   42        4.548624      4.556463   1.000000   1.000000
   43        4.637697      4.638823   1.000000   1.000000
   44        5.177628      5.144509   1.000000   1.000000
   45        5.226055      5.271625   1.000000   1.000000
   46        5.587311      5.581204   1.000000   1.000000
   47        5.804407      5.793099   1.000000   1.000000
   48        7.999583      7.993101   0.000000   0.000000
   49        8.104327      8.100170   0.000000   0.000000
   50        8.260978      8.258782   0.000000   0.000000
   51        8.909387      8.895896   0.000000   0.000000
   52        8.994746      9.008979   0.000000   0.000000
   53        9.822555      9.830238   0.000000   0.000000
   54        9.963341      9.954120   0.000000   0.000000
   55       11.047762     11.038910   0.000000   0.000000
   56       11.222972     11.229191   0.000000   0.000000
 
  0.5000000E+00  0.6521739E-01  0.0000000E+00  0.8333333E-02
    1      -50.606558    -50.601767   1.000000   1.000000
    2      -50.547585    -50.543097   1.000000   1.000000
    3      -50.547551    -50.543068   1.000000   1.000000
    4      -45.904437    -45.909153   1.000000   1.000000
    5      -45.860355    -45.864856   1.000000   1.000000
    6      -45.860333    -45.864825   1.000000   1.000000
    7      -16.175912    -16.175370   1.000000   1.000000
    8      -16.168484    -16.169810   1.000000   1.000000
    9      -16.158042    -16.156236   1.000000   1.000000
   10      -16.150495    -16.151556   1.000000   1.000000
   11      -16.114642    -16.113870   1.000000   1.000000
   12      -16.112874    -16.113771   1.000000   1.000000
   13      -16.102267    -16.102539   1.000000   1.000000
   14      -16.101420    -16.100896   1.000000   1.000000
   15      -16.091255    -16.091530   1.000000   1.000000
   16      -16.087893    -16.087707   1.000000   1.000000
   17      -11.799841    -11.798172   1.000000   1.000000
   18      -11.680466    -11.681951   1.000000   1.000000
   19      -10.802858    -10.803472   1.000000   1.000000
   20      -10.722875    -10.705534   1.000000   1.000000
   21      -10.656769    -10.680245   1.000000   1.000000
   22      -10.600285    -10.593388   1.000000   1.000000
   23       -3.504178     -3.503649   1.000000   1.000000
   24       -3.412235     -3.412726   1.000000   1.000000
   25       -0.088562     -0.080835   1.000000   1.000000
   26        0.036622      0.029940   1.000000   1.000000
   27        0.186218      0.170032   1.000000   1.000000
   28        0.298879      0.311665   1.000000   1.000000
   29        0.620600      0.624394   1.000000   1.000000
   30        1.104526      1.135977   1.000000   1.000000
   31        1.416071      1.426418   1.000000   1.000000
   32        1.701874      1.748805   1.000000   1.000000
   33        2.170036      2.104546   1.000000   1.000000
   34        2.538883      2.514706   1.000000   1.000000
   35        2.666513      2.623014   1.000000   1.000000
   36        2.894719      2.889725   1.000000   1.000000
   37        3.056477      3.115033   1.000000   1.000000
   38        3.739444      3.722099   1.000000   1.000000
   39        4.058797      4.099139   1.000000   1.000000
   40        4.223176      4.186190   1.000000   1.000000
   41        4.317729      4.331837   1.000000   1.000000
   42        4.546896      4.562045   1.000000   1.000000
   43        4.637095      4.639188   1.000000   1.000000
   44        5.166026      5.119125   1.000000   1.000000
   45        5.222815      5.296406   1.000000   1.000000
   46        5.583752      5.570413   1.000000   1.000000
   47        5.808420      5.783036   1.000000   1.000000
   48        8.006843      7.996720   0.000000   0.000000
   49        8.106323      8.101522   0.000000   0.000000
   50        8.258984      8.258205   0.000000   0.000000
   51        8.903962      8.882957   0.000000   0.000000
   52        8.994153      9.023811   0.000000   0.000000
   53        9.818933      9.837204   0.000000   0.000000
   54        9.972934      9.951775   0.000000   0.000000
   55       11.007747     10.994314   0.000000   0.000000
   56       11.252505     11.261154   0.000000   0.000000
 
  0.5000000E+00  0.8695652E-01  0.0000000E+00  0.8333333E-02
    1      -50.606559    -50.601769   1.000000   1.000000
    2      -50.547586    -50.543098   1.000000   1.000000
    3      -50.547551    -50.543068   1.000000   1.000000
    4      -45.904438    -45.909154   1.000000   1.000000
    5      -45.860355    -45.864857   1.000000   1.000000
    6      -45.860333    -45.864826   1.000000   1.000000
    7      -16.178616    -16.178166   1.000000   1.000000
    8      -16.168605    -16.169946   1.000000   1.000000
    9      -16.157608    -16.155647   1.000000   1.000000
   10      -16.148272    -16.149389   1.000000   1.000000
   11      -16.115118    -16.114384   1.000000   1.000000
   12      -16.112814    -16.113747   1.000000   1.000000
   13      -16.102195    -16.102663   1.000000   1.000000
   14      -16.101643    -16.100770   1.000000   1.000000
   15      -16.091364    -16.091688   1.000000   1.000000
   16      -16.086844    -16.086679   1.000000   1.000000
   17      -11.811400    -11.809474   1.000000   1.000000
   18      -11.657973    -11.659844   1.000000   1.000000
   19      -10.810050    -10.811972   1.000000   1.000000
   20      -10.734609    -10.710574   1.000000   1.000000
   21      -10.657701    -10.688501   1.000000   1.000000
   22      -10.594179    -10.585188   1.000000   1.000000
   23       -3.521160     -3.520504   1.000000   1.000000
   24       -3.397746     -3.398455   1.000000   1.000000
   25       -0.109040     -0.100965   1.000000   1.000000
   26        0.050912      0.040668   1.000000   1.000000
   27        0.186998      0.159268   1.000000   1.000000
   28        0.311198      0.328829   1.000000   1.000000
   29        0.619085      0.622523   1.000000   1.000000
   30        1.085244      1.135562   1.000000   1.000000
   31        1.430335      1.454447   1.000000   1.000000
   32        1.690913      1.755743   1.000000   1.000000
   33        2.209126      2.114541   1.000000   1.000000
   34        2.565012      2.514796   1.000000   1.000000
   35        2.673750      2.606598   1.000000   1.000000
   36        2.898599      2.889852   1.000000   1.000000
   37        3.061308      3.157129   1.000000   1.000000
   38        3.728484      3.700377   1.000000   1.000000
   39        4.035445      4.095820   1.000000   1.000000
   40        4.210639      4.163270   1.000000   1.000000
   41        4.318468      4.337689   1.000000   1.000000
   42        4.545918      4.567534   1.000000   1.000000
   43        4.637060      4.639775   1.000000   1.000000
   44        5.143355      5.094714   1.000000   1.000000
   45        5.224425      5.319232   1.000000   1.000000
   46        5.578093      5.556280   1.000000   1.000000
   47        5.813455      5.769699   1.000000   1.000000
   48        8.016543      8.001499   0.000000   0.000000
   49        8.109065      8.103519   0.000000   0.000000
   50        8.256344      8.257251   0.000000   0.000000
   51        8.892889      8.867515   0.000000   0.000000
   52        8.997517      9.041346   0.000000   0.000000
   53        9.810399      9.845494   0.000000   0.000000
   54        9.988244      9.948543   0.000000   0.000000
   55       10.969767     10.952846   0.000000   0.000000
   56       11.276511     11.286530   0.000000   0.000000
 
  0.5000000E+00  0.1086957E+00  0.0000000E+00  0.8333333E-02
    1      -50.606559    -50.601769   1.000000   1.000000
    2      -50.547586    -50.543099   1.000000   1.000000
    3      -50.547553    -50.543069   1.000000   1.000000
    4      -45.904439    -45.909154   1.000000   1.000000
    5      -45.860357    -45.864858   1.000000   1.000000
    6      -45.860334    -45.864828   1.000000   1.000000
    7      -16.181496    -16.181133   1.000000   1.000000
    8      -16.168829    -16.170089   1.000000   1.000000
    9      -16.156906    -16.154933   1.000000   1.000000
   10      -16.146094    -16.147225   1.000000   1.000000
   11      -16.115677    -16.115038   1.000000   1.000000
   12      -16.112739    -16.113650   1.000000   1.000000
   13      -16.102174    -16.102800   1.000000   1.000000
   14      -16.101824    -16.100650   1.000000   1.000000
   15      -16.091443    -16.091804   1.000000   1.000000
   16      -16.085636    -16.085496   1.000000   1.000000
   17      -11.821574    -11.819397   1.000000   1.000000
   18      -11.633913    -11.636201   1.000000   1.000000
   19      -10.819430    -10.822334   1.000000   1.000000
   20      -10.747101    -10.720983   1.000000   1.000000
   21      -10.660181    -10.692932   1.000000   1.000000
   22      -10.587233    -10.577189   1.000000   1.000000
   23       -3.538981     -3.538217   1.000000   1.000000
   24       -3.383060     -3.383985   1.000000   1.000000
   25       -0.129969     -0.122245   1.000000   1.000000
   26        0.063166      0.049896   1.000000   1.000000
   27        0.189223      0.149502   1.000000   1.000000
   28        0.325695      0.348036   1.000000   1.000000
   29        0.617169      0.619745   1.000000   1.000000
   30        1.064856      1.134581   1.000000   1.000000
   31        1.442825      1.489245   1.000000   1.000000
   32        1.689571      1.763811   1.000000   1.000000
   33        2.242908      2.128133   1.000000   1.000000
   34        2.597833      2.506254   1.000000   1.000000
   35        2.686643      2.599436   1.000000   1.000000
   36        2.904203      2.890386   1.000000   1.000000
   37        3.067894      3.204891   1.000000   1.000000
   38        3.716480      3.676371   1.000000   1.000000
   39        4.009127      4.085016   1.000000   1.000000
   40        4.187480      4.140635   1.000000   1.000000
   41        4.322437      4.344539   1.000000   1.000000
   42        4.546679      4.571313   1.000000   1.000000
   43        4.637366      4.640699   1.000000   1.000000
   44        5.112207      5.072501   1.000000   1.000000
   45        5.228355      5.337494   1.000000   1.000000
   46        5.570099      5.540530   1.000000   1.000000
   47        5.818862      5.753677   1.000000   1.000000
   48        8.028251      8.007156   0.000000   0.000000
   49        8.112492      8.106276   0.000000   0.000000
   50        8.253216      8.255799   0.000000   0.000000
   51        8.875391      8.850004   0.000000   0.000000
   52        9.006109      9.060680   0.000000   0.000000
   53        9.795822      9.852217   0.000000   0.000000
   54       10.009155      9.946138   0.000000   0.000000
   55       10.935837     10.917019   0.000000   0.000000
   56       11.293762     11.304115   0.000000   0.000000
 
  0.5000000E+00  0.1304348E+00  0.0000000E+00  0.8333333E-02
    1      -50.606559    -50.601769   1.000000   1.000000
    2      -50.547586    -50.543098   1.000000   1.000000
    3      -50.547552    -50.543069   1.000000   1.000000
    4      -45.904439    -45.909154   1.000000   1.000000
    5      -45.860355    -45.864858   1.000000   1.000000
    6      -45.860334    -45.864826   1.000000   1.000000
    7      -16.184458    -16.184166   1.000000   1.000000
    8      -16.169086    -16.170225   1.000000   1.000000
    9      -16.156024    -16.154112   1.000000   1.000000
   10      -16.144031    -16.145159   1.000000   1.000000
   11      -16.116290    -16.115746   1.000000   1.000000
   12      -16.112644    -16.113527   1.000000   1.000000
   13      -16.102316    -16.102941   1.000000   1.000000
   14      -16.101842    -16.100549   1.000000   1.000000
   15      -16.091481    -16.091862   1.000000   1.000000
   16      -16.084292    -16.084178   1.000000   1.000000
   17      -11.830129    -11.827741   1.000000   1.000000
   18      -11.608624    -11.611332   1.000000   1.000000
   19      -10.831009    -10.834317   1.000000   1.000000
   20      -10.759880    -10.734928   1.000000   1.000000
   21      -10.663856    -10.695075   1.000000   1.000000
   22      -10.579933    -10.569606   1.000000   1.000000
   23       -3.557632     -3.556783   1.000000   1.000000
   24       -3.368105     -3.369237   1.000000   1.000000
   25       -0.151147     -0.144366   1.000000   1.000000
   26        0.073053      0.057164   1.000000   1.000000
   27        0.193057      0.142319   1.000000   1.000000
   28        0.341757      0.368326   1.000000   1.000000
   29        0.614881      0.616067   1.000000   1.000000
   30        1.044850      1.132822   1.000000   1.000000
   31        1.452789      1.530028   1.000000   1.000000
   32        1.699642      1.772582   1.000000   1.000000
   33        2.267877      2.145488   1.000000   1.000000
   34        2.630637      2.487574   1.000000   1.000000
   35        2.710764      2.604441   1.000000   1.000000
   36        2.912228      2.891527   1.000000   1.000000
   37        3.076461      3.256092   1.000000   1.000000
   38        3.704650      3.651898   1.000000   1.000000
   39        3.980892      4.063806   1.000000   1.000000
   40        4.155465      4.121715   1.000000   1.000000
   41        4.327994      4.351885   1.000000   1.000000
   42        4.549700      4.572161   1.000000   1.000000
   43        4.637345      4.641972   1.000000   1.000000
   44        5.075355      5.053372   1.000000   1.000000
   45        5.232242      5.347503   1.000000   1.000000
   46        5.559756      5.526493   1.000000   1.000000
   47        5.823824      5.735524   1.000000   1.000000
   48        8.041467      8.013352   0.000000   0.000000
   49        8.116523      8.109943   0.000000   0.000000
   50        8.249814      8.253742   0.000000   0.000000
   51        8.852175      8.830460   0.000000   0.000000
   52        9.019640      9.081243   0.000000   0.000000
   53        9.775148      9.851753   0.000000   0.000000
   54       10.034515      9.949073   0.000000   0.000000
   55       10.907204     10.888476   0.000000   0.000000
   56       11.303970     11.312208   0.000000   0.000000
 
  0.5000000E+00  0.1521739E+00  0.0000000E+00  0.8333333E-02
    1      -50.606560    -50.601770   1.000000   1.000000
    2      -50.547586    -50.543097   1.000000   1.000000
    3      -50.547550    -50.543068   1.000000   1.000000
    4      -45.904440    -45.909155   1.000000   1.000000
    5      -45.860354    -45.864857   1.000000   1.000000
    6      -45.860334    -45.864825   1.000000   1.000000
    7      -16.187447    -16.187210   1.000000   1.000000
    8      -16.169344    -16.170349   1.000000   1.000000
    9      -16.155019    -16.153204   1.000000   1.000000
   10      -16.142132    -16.143248   1.000000   1.000000
   11      -16.116925    -16.116470   1.000000   1.000000
   12      -16.112536    -16.113387   1.000000   1.000000
   13      -16.102557    -16.103090   1.000000   1.000000
   14      -16.101774    -16.100483   1.000000   1.000000
   15      -16.091480    -16.091863   1.000000   1.000000
   16      -16.082856    -16.082765   1.000000   1.000000
   17      -11.837051    -11.834488   1.000000   1.000000
   18      -11.582342    -11.585463   1.000000   1.000000
   19      -10.844740    -10.847806   1.000000   1.000000
   20      -10.772756    -10.750477   1.000000   1.000000
   21      -10.668433    -10.696715   1.000000   1.000000
   22      -10.572706    -10.562610   1.000000   1.000000
   23       -3.577080     -3.576168   1.000000   1.000000
   24       -3.352851     -3.354171   1.000000   1.000000
   25       -0.172466     -0.167102   1.000000   1.000000
   26        0.080617      0.062138   1.000000   1.000000
   27        0.198333      0.138984   1.000000   1.000000
   28        0.358686      0.388720   1.000000   1.000000
   29        0.612288      0.611679   1.000000   1.000000
   30        1.026378      1.130114   1.000000   1.000000
   31        1.461425      1.575903   1.000000   1.000000
   32        1.720340      1.781795   1.000000   1.000000
   33        2.283371      2.166413   1.000000   1.000000
   34        2.655379      2.463338   1.000000   1.000000
   35        2.749956      2.618060   1.000000   1.000000
   36        2.923952      2.893487   1.000000   1.000000
   37        3.087255      3.308491   1.000000   1.000000
   38        3.694241      3.628850   1.000000   1.000000
   39        3.951647      4.033607   1.000000   1.000000
   40        4.117313      4.106172   1.000000   1.000000
   41        4.333488      4.358667   1.000000   1.000000
   42        4.554890      4.569667   1.000000   1.000000
   43        4.636154      4.643331   1.000000   1.000000
   44        5.034762      5.037991   1.000000   1.000000
   45        5.234951      5.344617   1.000000   1.000000
   46        5.547219      5.518788   1.000000   1.000000
   47        5.827468      5.715704   1.000000   1.000000
   48        8.055600      8.019697   0.000000   0.000000
   49        8.121048      8.114677   0.000000   0.000000
   50        8.246398      8.250987   0.000000   0.000000
   51        8.824353      8.808777   0.000000   0.000000
   52        9.037232      9.102578   0.000000   0.000000
   53        9.748959      9.838818   0.000000   0.000000
   54       10.062736      9.961835   0.000000   0.000000
   55       10.884464     10.867987   0.000000   0.000000
   56       11.307608     11.314227   0.000000   0.000000
 
  0.5000000E+00  0.1739130E+00  0.0000000E+00  0.8333333E-02
    1      -50.606559    -50.601769   1.000000   1.000000
    2      -50.547585    -50.543096   1.000000   1.000000
    3      -50.547549    -50.543067   1.000000   1.000000
    4      -45.904439    -45.909154   1.000000   1.000000
    5      -45.860353    -45.864856   1.000000   1.000000
    6      -45.860332    -45.864823   1.000000   1.000000
    7      -16.190416    -16.190222   1.000000   1.000000
    8      -16.169579    -16.170454   1.000000   1.000000
    9      -16.153930    -16.152226   1.000000   1.000000
   10      -16.140429    -16.141527   1.000000   1.000000
   11      -16.117553    -16.117179   1.000000   1.000000
   12      -16.112414    -16.113228   1.000000   1.000000
   13      -16.102814    -16.103243   1.000000   1.000000
   14      -16.101707    -16.100467   1.000000   1.000000
   15      -16.091437    -16.091806   1.000000   1.000000
   16      -16.081339    -16.081267   1.000000   1.000000
   17      -11.842300    -11.839601   1.000000   1.000000
   18      -11.555280    -11.558809   1.000000   1.000000
   19      -10.860410    -10.862655   1.000000   1.000000
   20      -10.785592    -10.766713   1.000000   1.000000
   21      -10.673617    -10.698477   1.000000   1.000000
   22      -10.565776    -10.556220   1.000000   1.000000
   23       -3.597222     -3.596274   1.000000   1.000000
   24       -3.337304     -3.338781   1.000000   1.000000
   25       -0.193835     -0.190204   1.000000   1.000000
   26        0.086212      0.064984   1.000000   1.000000
   27        0.204666      0.140024   1.000000   1.000000
   28        0.375640      0.408167   1.000000   1.000000
   29        0.609576      0.607000   1.000000   1.000000
   30        1.010342      1.126364   1.000000   1.000000
   31        1.470988      1.625765   1.000000   1.000000
   32        1.749433      1.791576   1.000000   1.000000
   33        2.290509      2.190183   1.000000   1.000000
   34        2.673316      2.437965   1.000000   1.000000
   35        2.796003      2.636838   1.000000   1.000000
   36        2.941629      2.896494   1.000000   1.000000
   37        3.100606      3.359184   1.000000   1.000000
   38        3.686423      3.609650   1.000000   1.000000
   39        3.922275      3.997986   1.000000   1.000000
   40        4.075648      4.091904   1.000000   1.000000
   41        4.338007      4.363401   1.000000   1.000000
   42        4.561651      4.564298   1.000000   1.000000
   43        4.632987      4.644362   1.000000   1.000000
   44        4.992064      5.026721   1.000000   1.000000
   45        5.236116      5.326448   1.000000   1.000000
   46        5.532739      5.520074   1.000000   1.000000
   47        5.828980      5.694587   1.000000   1.000000
   48        8.069950      8.025812   0.000000   0.000000
   49        8.125992      8.120598   0.000000   0.000000
   50        8.243287      8.247501   0.000000   0.000000
   51        8.792829      8.784854   0.000000   0.000000
   52        9.058069      9.124319   0.000000   0.000000
   53        9.718158      9.813681   0.000000   0.000000
   54       10.092312      9.983935   0.000000   0.000000
   55       10.867380     10.854925   0.000000   0.000000
   56       11.305803     11.307771   0.000000   0.000000
 