   10   10    1    2
  0.1285713E+02  0.5706178E-09  0.5706178E-09  0.5706178E-09  0.5000000E-15
  1.000000000000000E-004
  CAR 
 unknown system                          
     94    120     56
 
  0.5000000E+00  0.0000000E+00  0.0000000E+00  0.8333333E-02
    1      -50.873618    -50.868829   1.000000   1.000000
    2      -50.811954    -50.807472   1.000000   1.000000
    3      -50.811924    -50.807438   1.000000   1.000000
    4      -46.089742    -46.094454   1.000000   1.000000
    5      -46.044418    -46.048914   1.000000   1.000000
    6      -46.044390    -46.048887   1.000000   1.000000
    7      -16.135980    -16.136076   1.000000   1.000000
    8      -16.135140    -16.135087   1.000000   1.000000
    9      -16.122491    -16.122576   1.000000   1.000000
   10      -16.121280    -16.121179   1.000000   1.000000
   11      -16.079568    -16.079523   1.000000   1.000000
   12      -16.078606    -16.078652   1.000000   1.000000
   13      -16.067887    -16.067839   1.000000   1.000000
   14      -16.066630    -16.066692   1.000000   1.000000
   15      -16.056353    -16.056516   1.000000   1.000000
   16      -16.055247    -16.055041   1.000000   1.000000
   17      -11.744433    -11.743104   1.000000   1.000000
   18      -11.700976    -11.701943   1.000000   1.000000
   19      -10.772266    -10.770316   1.000000   1.000000
   20      -10.682727    -10.683974   1.000000   1.000000
   21      -10.634685    -10.634211   1.000000   1.000000
   22      -10.584753    -10.585949   1.000000   1.000000
   23       -3.447051     -3.446990   1.000000   1.000000
   24       -3.432695     -3.432526   1.000000   1.000000
   25       -0.518450     -0.515105   1.000000   1.000000
   26       -0.500837     -0.497359   1.000000   1.000000
   27       -0.302491     -0.298807   1.000000   1.000000
   28       -0.262175     -0.258377   1.000000   1.000000
   29        0.035419      0.039401   1.000000   1.000000
   30        1.111065      1.110702   1.000000   1.000000
   31        1.326722      1.326896   1.000000   1.000000
   32        1.739785      1.739928   1.000000   1.000000
   33        2.071632      2.071631   1.000000   1.000000
   34        2.417883      2.417728   1.000000   1.000000
   35        2.621714      2.621619   1.000000   1.000000
   36        2.848254      2.848852   1.000000   1.000000
   37        3.031483      3.031003   1.000000   1.000000
   38        3.732506      3.731788   1.000000   1.000000
   39        4.102472      4.103151   1.000000   1.000000
   40        4.251975      4.251638   1.000000   1.000000
   41        4.355145      4.354043   1.000000   1.000000
   42        4.569743      4.569957   1.000000   1.000000
   43        4.665937      4.665577   1.000000   1.000000
   44        5.135779      5.136582   1.000000   1.000000
   45        5.211531      5.212003   1.000000   1.000000
   46        5.513350      5.513434   1.000000   1.000000
   47        5.752169      5.752528   1.000000   1.000000
   48        8.202070      8.198600   0.000000   0.000000
   49        8.330008      8.326394   0.000000   0.000000
   50        8.482405      8.478861   0.000000   0.000000
   51        8.986539      8.983387   0.000000   0.000000
   52        9.064532      9.061415   0.000000   0.000000
   53        9.848779      9.849645   0.000000   0.000000
   54        9.997150      9.995880   0.000000   0.000000
   55       11.134624     11.134486   0.000000   0.000000
   56       11.203394     11.203315   0.000000   0.000000
 
  0.5000000E+00  0.2173913E-01  0.0000000E+00  0.8333333E-02
    1      -50.873618    -50.868829   1.000000   1.000000
    2      -50.811953    -50.807470   1.000000   1.000000
    3      -50.811922    -50.807437   1.000000   1.000000
    4      -46.089742    -46.094454   1.000000   1.000000
    5      -46.044415    -46.048912   1.000000   1.000000
    6      -46.044389    -46.048883   1.000000   1.000000
    7      -16.137099    -16.136732   1.000000   1.000000
    8      -16.134567    -16.135132   1.000000   1.000000
    9      -16.123096    -16.122497   1.000000   1.000000
   10      -16.120139    -16.120569   1.000000   1.000000
   11      -16.079640    -16.079509   1.000000   1.000000
   12      -16.078594    -16.078741   1.000000   1.000000
   13      -16.067865    -16.067862   1.000000   1.000000
   14      -16.066674    -16.066658   1.000000   1.000000
   15      -16.056474    -16.056641   1.000000   1.000000
   16      -16.054965    -16.054771   1.000000   1.000000
   17      -11.750496    -11.749103   1.000000   1.000000
   18      -11.693280    -11.694333   1.000000   1.000000
   19      -10.773177    -10.771654   1.000000   1.000000
   20      -10.685162    -10.683857   1.000000   1.000000
   21      -10.634250    -10.637467   1.000000   1.000000
   22      -10.583792    -10.583394   1.000000   1.000000
   23       -3.456739     -3.456419   1.000000   1.000000
   24       -3.423360     -3.423469   1.000000   1.000000
   25       -0.528345     -0.523596   1.000000   1.000000
   26       -0.491997     -0.490031   1.000000   1.000000
   27       -0.303988     -0.303360   1.000000   1.000000
   28       -0.259070     -0.253181   1.000000   1.000000
   29        0.035076      0.039122   1.000000   1.000000
   30        1.106724      1.109995   1.000000   1.000000
   31        1.331489      1.331779   1.000000   1.000000
   32        1.734311      1.740932   1.000000   1.000000
   33        2.080252      2.072461   1.000000   1.000000
   34        2.423387      2.417613   1.000000   1.000000
   35        2.621547      2.618930   1.000000   1.000000
   36        2.848997      2.847808   1.000000   1.000000
   37        3.032313      3.039876   1.000000   1.000000
   38        3.731053      3.728299   1.000000   1.000000
   39        4.097812      4.103663   1.000000   1.000000
   40        4.252138      4.246001   1.000000   1.000000
   41        4.354239      4.355652   1.000000   1.000000
   42        4.569415      4.571043   1.000000   1.000000
   43        4.665307      4.665443   1.000000   1.000000
   44        5.131433      5.127240   1.000000   1.000000
   45        5.212313      5.220736   1.000000   1.000000
   46        5.513309      5.511886   1.000000   1.000000
   47        5.753209      5.750520   1.000000   1.000000
   48        8.203758      8.199477   0.000000   0.000000
   49        8.330464      8.326694   0.000000   0.000000
   50        8.481987      8.478845   0.000000   0.000000
   51        8.985995      8.979572   0.000000   0.000000
   52        9.063484      9.065509   0.000000   0.000000
   53        9.848797      9.851228   0.000000   0.000000
   54        9.998532      9.995429   0.000000   0.000000
   55       11.114213     11.109928   0.000000   0.000000
   56       11.221653     11.225180   0.000000   0.000000
 
  0.5000000E+00  0.4347826E-01  0.0000000E+00  0.8333333E-02
    1      -50.873618    -50.868829   1.000000   1.000000
    2      -50.811951    -50.807466   1.000000   1.000000
    3      -50.811918    -50.807435   1.000000   1.000000
    4      -46.089742    -46.094454   1.000000   1.000000
    5      -46.044411    -46.048910   1.000000   1.000000
    6      -46.044387    -46.048879   1.000000   1.000000
    7      -16.139060    -16.138497   1.000000   1.000000
    8      -16.134163    -16.135221   1.000000   1.000000
    9      -16.123525    -16.122242   1.000000   1.000000
   10      -16.118215    -16.119035   1.000000   1.000000
   11      -16.079863    -16.079479   1.000000   1.000000
   12      -16.078568    -16.079009   1.000000   1.000000
   13      -16.067811    -16.067934   1.000000   1.000000
   14      -16.066807    -16.066574   1.000000   1.000000
   15      -16.056681    -16.056884   1.000000   1.000000
   16      -16.054306    -16.054124   1.000000   1.000000
   17      -11.762510    -11.760888   1.000000   1.000000
   18      -11.676493    -11.677839   1.000000   1.000000
   19      -10.775993    -10.775581   1.000000   1.000000
   20      -10.691740    -10.683717   1.000000   1.000000
   21      -10.633632    -10.645709   1.000000   1.000000
   22      -10.580951    -10.577215   1.000000   1.000000
   23       -3.471708     -3.471134   1.000000   1.000000
   24       -3.409459     -3.409881   1.000000   1.000000
   25       -0.544459     -0.538274   1.000000   1.000000
   26       -0.479072     -0.478829   1.000000   1.000000
   27       -0.307321     -0.313213   1.000000   1.000000
   28       -0.250946     -0.241358   1.000000   1.000000
   29        0.034042      0.038255   1.000000   1.000000
   30        1.094940      1.108094   1.000000   1.000000
   31        1.344467      1.346085   1.000000   1.000000
   32        1.720700      1.743896   1.000000   1.000000
   33        2.102825      2.075007   1.000000   1.000000
   34        2.440238      2.416903   1.000000   1.000000
   35        2.621072      2.612001   1.000000   1.000000
   36        2.851261      2.845623   1.000000   1.000000
   37        3.034820      3.064698   1.000000   1.000000
   38        3.726851      3.718257   1.000000   1.000000
   39        4.084752      4.104727   1.000000   1.000000
   40        4.250904      4.230372   1.000000   1.000000
   41        4.352137      4.359627   1.000000   1.000000
   42        4.568525      4.573959   1.000000   1.000000
   43        4.663769      4.665029   1.000000   1.000000
   44        5.118737      5.106856   1.000000   1.000000
   45        5.214352      5.239092   1.000000   1.000000
   46        5.512911      5.507446   1.000000   1.000000
   47        5.756307      5.744627   1.000000   1.000000
   48        8.208749      8.202055   0.000000   0.000000
   49        8.331819      8.327590   0.000000   0.000000
   50        8.480739      8.478754   0.000000   0.000000
   51        8.983633      8.969668   0.000000   0.000000
   52        9.061190      9.076185   0.000000   0.000000
   53        9.848074      9.855883   0.000000   0.000000
   54       10.003176      9.993931   0.000000   0.000000
   55       11.076969     11.066785   0.000000   0.000000
   56       11.252873     11.260181   0.000000   0.000000
 
  0.5000000E+00  0.6521739E-01  0.0000000E+00  0.8333333E-02
    1      -50.873618    -50.868829   1.000000   1.000000
    2      -50.811951    -50.807465   1.000000   1.000000
    3      -50.811917    -50.807435   1.000000   1.000000
    4      -46.089742    -46.094455   1.000000   1.000000
    5      -46.044409    -46.048910   1.000000   1.000000
    6      -46.044388    -46.048879   1.000000   1.000000
    7      -16.141473    -16.140935   1.000000   1.000000
    8      -16.134081    -16.135338   1.000000   1.000000
    9      -16.123472    -16.121815   1.000000   1.000000
   10      -16.116065    -16.117040   1.000000   1.000000
   11      -16.080222    -16.079496   1.000000   1.000000
   12      -16.078527    -16.079369   1.000000   1.000000
   13      -16.067741    -16.068045   1.000000   1.000000
   14      -16.067006    -16.066464   1.000000   1.000000
   15      -16.056859    -16.057112   1.000000   1.000000
   16      -16.053414    -16.053245   1.000000   1.000000
   17      -11.775152    -11.773200   1.000000   1.000000
   18      -11.656002    -11.657784   1.000000   1.000000
   19      -10.780765    -10.781927   1.000000   1.000000
   20      -10.701110    -10.684086   1.000000   1.000000
   21      -10.633940    -10.656400   1.000000   1.000000
   22      -10.576433    -10.569603   1.000000   1.000000
   23       -3.487828     -3.487037   1.000000   1.000000
   24       -3.395111     -3.395846   1.000000   1.000000
   25       -0.561783     -0.554601   1.000000   1.000000
   26       -0.467155     -0.468239   1.000000   1.000000
   27       -0.310747     -0.324374   1.000000   1.000000
   28       -0.239644     -0.226785   1.000000   1.000000
   29        0.032336      0.036747   1.000000   1.000000
   30        1.078375      1.105475   1.000000   1.000000
   31        1.362735      1.368963   1.000000   1.000000
   32        1.704869      1.748681   1.000000   1.000000
   33        2.132321      2.079426   1.000000   1.000000
   34        2.469115      2.414578   1.000000   1.000000
   35        2.620417      2.603769   1.000000   1.000000
   36        2.855140      2.843936   1.000000   1.000000
   37        3.039065      3.101692   1.000000   1.000000
   38        3.720371      3.702799   1.000000   1.000000
   39        4.065293      4.105124   1.000000   1.000000
   40        4.244265      4.207270   1.000000   1.000000
   41        4.350476      4.364612   1.000000   1.000000
   42        4.567412      4.577760   1.000000   1.000000
   43        4.662079      4.664322   1.000000   1.000000
   44        5.098556      5.083432   1.000000   1.000000
   45        5.216914      5.258385   1.000000   1.000000
   46        5.511464      5.500834   1.000000   1.000000
   47        5.761351      5.735223   1.000000   1.000000
   48        8.216810      8.206203   0.000000   0.000000
   49        8.334057      8.329103   0.000000   0.000000
   50        8.478721      8.478492   0.000000   0.000000
   51        8.977459      8.956016   0.000000   0.000000
   52        9.060023      9.090838   0.000000   0.000000
   53        9.844663      9.863277   0.000000   0.000000
   54       10.012304      9.991081   0.000000   0.000000
   55       11.037697     11.022082   0.000000   0.000000
   56       11.282109     11.292043   0.000000   0.000000
 
  0.5000000E+00  0.8695652E-01  0.0000000E+00  0.8333333E-02
    1      -50.873619    -50.868831   1.000000   1.000000
    2      -50.811952    -50.807465   1.000000   1.000000
    3      -50.811917    -50.807436   1.000000   1.000000
    4      -46.089744    -46.094456   1.000000   1.000000
    5      -46.044410    -46.048911   1.000000   1.000000
    6      -46.044388    -46.048879   1.000000   1.000000
    7      -16.144177    -16.143718   1.000000   1.000000
    8      -16.134197    -16.135472   1.000000   1.000000
    9      -16.123037    -16.121234   1.000000   1.000000
   10      -16.113854    -16.114884   1.000000   1.000000
   11      -16.080694    -16.080013   1.000000   1.000000
   12      -16.078466    -16.079332   1.000000   1.000000
   13      -16.067661    -16.068181   1.000000   1.000000
   14      -16.067241    -16.066341   1.000000   1.000000
   15      -16.056990    -16.057291   1.000000   1.000000
   16      -16.052338    -16.052187   1.000000   1.000000
   17      -11.786873    -11.784570   1.000000   1.000000
   18      -11.633398    -11.635679   1.000000   1.000000
   19      -10.787572    -10.790358   1.000000   1.000000
   20      -10.712080    -10.686497   1.000000   1.000000
   21      -10.635664    -10.666958   1.000000   1.000000
   22      -10.570625    -10.561712   1.000000   1.000000
   23       -3.504815     -3.503836   1.000000   1.000000
   24       -3.380557     -3.381606   1.000000   1.000000
   25       -0.579633     -0.571900   1.000000   1.000000
   26       -0.456973     -0.458884   1.000000   1.000000
   27       -0.313291     -0.335162   1.000000   1.000000
   28       -0.226332     -0.210921   1.000000   1.000000
   29        0.029993      0.034549   1.000000   1.000000
   30        1.059602      1.102585   1.000000   1.000000
   31        1.383326      1.399412   1.000000   1.000000
   32        1.692343      1.755074   1.000000   1.000000
   33        2.162276      2.085915   1.000000   1.000000
   34        2.510092      2.409319   1.000000   1.000000
   35        2.619943      2.597823   1.000000   1.000000
   36        2.860763      2.843723   1.000000   1.000000
   37        3.045129      3.147274   1.000000   1.000000
   38        3.712344      3.683464   1.000000   1.000000
   39        4.041381      4.103289   1.000000   1.000000
   40        4.228643      4.178947   1.000000   1.000000
   41        4.350728      4.369916   1.000000   1.000000
   42        4.566657      4.581087   1.000000   1.000000
   43        4.660790      4.663401   1.000000   1.000000
   44        5.072030      5.060192   1.000000   1.000000
   45        5.219171      5.274011   1.000000   1.000000
   46        5.508192      5.493537   1.000000   1.000000
   47        5.768030      5.722869   1.000000   1.000000
   48        8.227605      8.211717   0.000000   0.000000
   49        8.337146      8.331274   0.000000   0.000000
   50        8.476046      8.477921   0.000000   0.000000
   51        8.965333      8.939912   0.000000   0.000000
   52        9.062645      9.107851   0.000000   0.000000
   53        9.836460      9.872504   0.000000   0.000000
   54       10.026974      9.986813   0.000000   0.000000
   55       11.000268     10.980398   0.000000   0.000000
   56       11.305943     11.317280   0.000000   0.000000
 
  0.5000000E+00  0.1086957E+00  0.0000000E+00  0.8333333E-02
    1      -50.873620    -50.868831   1.000000   1.000000
    2      -50.811952    -50.807467   1.000000   1.000000
    3      -50.811919    -50.807436   1.000000   1.000000
    4      -46.089744    -46.094456   1.000000   1.000000
    5      -46.044412    -46.048911   1.000000   1.000000
    6      -46.044389    -46.048882   1.000000   1.000000
    7      -16.147059    -16.146678   1.000000   1.000000
    8      -16.134412    -16.135614   1.000000   1.000000
    9      -16.122339    -16.120523   1.000000   1.000000
   10      -16.111688    -16.112734   1.000000   1.000000
   11      -16.081248    -16.080657   1.000000   1.000000
   12      -16.078388    -16.079235   1.000000   1.000000
   13      -16.067660    -16.068332   1.000000   1.000000
   14      -16.067407    -16.066220   1.000000   1.000000
   15      -16.057087    -16.057424   1.000000   1.000000
   16      -16.051104    -16.050976   1.000000   1.000000
   17      -11.797188    -11.794552   1.000000   1.000000
   18      -11.609264    -11.612066   1.000000   1.000000
   19      -10.796503    -10.800619   1.000000   1.000000
   20      -10.723925    -10.694273   1.000000   1.000000
   21      -10.638774    -10.673671   1.000000   1.000000
   22      -10.564069    -10.554057   1.000000   1.000000
   23       -3.522650     -3.521516   1.000000   1.000000
   24       -3.365778     -3.367134   1.000000   1.000000
   25       -0.597746     -0.589917   1.000000   1.000000
   26       -0.448733     -0.451010   1.000000   1.000000
   27       -0.314575     -0.344590   1.000000   1.000000
   28       -0.211782     -0.194490   1.000000   1.000000
   29        0.027078      0.031648   1.000000   1.000000
   30        1.040548      1.099644   1.000000   1.000000
   31        1.403913      1.436510   1.000000   1.000000
   32        1.687068      1.762793   1.000000   1.000000
   33        2.188732      2.094602   1.000000   1.000000
   34        2.560991      2.400288   1.000000   1.000000
   35        2.620940      2.597050   1.000000   1.000000
   36        2.868283      2.845269   1.000000   1.000000
   37        3.053094      3.198625   1.000000   1.000000
   38        3.703708      3.661939   1.000000   1.000000
   39        4.014499      4.097473   1.000000   1.000000
   40        4.203160      4.147484   1.000000   1.000000
   41        4.352752      4.375259   1.000000   1.000000
   42        4.566849      4.582433   1.000000   1.000000
   43        4.659866      4.662496   1.000000   1.000000
   44        5.040417      5.038698   1.000000   1.000000
   45        5.220436      5.282184   1.000000   1.000000
   46        5.502525      5.487991   1.000000   1.000000
   47        5.775749      5.708221   1.000000   1.000000
   48        8.240686      8.218321   0.000000   0.000000
   49        8.341018      8.334166   0.000000   0.000000
   50        8.472869      8.476860   0.000000   0.000000
   51        8.946634      8.921815   0.000000   0.000000
   52        9.070214      9.126360   0.000000   0.000000
   53        9.822225      9.881195   0.000000   0.000000
   54       10.047220      9.982332   0.000000   0.000000
   55       10.966738     10.944365   0.000000   0.000000
   56       11.323221     11.334700   0.000000   0.000000
 
  0.5000000E+00  0.1304348E+00  0.0000000E+00  0.8333333E-02
    1      -50.873619    -50.868831   1.000000   1.000000
    2      -50.811952    -50.807466   1.000000   1.000000
    3      -50.811918    -50.807436   1.000000   1.000000
    4      -46.089744    -46.094455   1.000000   1.000000
    5      -46.044410    -46.048911   1.000000   1.000000
    6      -46.044389    -46.048880   1.000000   1.000000
    7      -16.150022    -16.149705   1.000000   1.000000
    8      -16.134658    -16.135747   1.000000   1.000000
    9      -16.121463    -16.119701   1.000000   1.000000
   10      -16.109636    -16.110683   1.000000   1.000000
   11      -16.081857    -16.081355   1.000000   1.000000
   12      -16.078291    -16.079111   1.000000   1.000000
   13      -16.067869    -16.068488   1.000000   1.000000
   14      -16.067363    -16.066115   1.000000   1.000000
   15      -16.057140    -16.057500   1.000000   1.000000
   16      -16.049738    -16.049632   1.000000   1.000000
   17      -11.805875    -11.802958   1.000000   1.000000
   18      -11.583924    -11.587243   1.000000   1.000000
   19      -10.807600    -10.812459   1.000000   1.000000
   20      -10.736143    -10.707283   1.000000   1.000000
   21      -10.642962    -10.676393   1.000000   1.000000
   22      -10.557203    -10.546840   1.000000   1.000000
   23       -3.541317     -3.540062   1.000000   1.000000
   24       -3.350708     -3.352355   1.000000   1.000000
   25       -0.615978     -0.608482   1.000000   1.000000
   26       -0.442391     -0.444828   1.000000   1.000000
   27       -0.314543     -0.351808   1.000000   1.000000
   28       -0.196652     -0.178074   1.000000   1.000000
   29        0.023717      0.028106   1.000000   1.000000
   30        1.022572      1.096649   1.000000   1.000000
   31        1.423104      1.479484   1.000000   1.000000
   32        1.691325      1.771538   1.000000   1.000000
   33        2.210120      2.105412   1.000000   1.000000
   34        2.605980      2.387909   1.000000   1.000000
   35        2.636796      2.602713   1.000000   1.000000
   36        2.877896      2.848570   1.000000   1.000000
   37        3.063017      3.253349   1.000000   1.000000
   38        3.695555      3.640001   1.000000   1.000000
   39        3.985742      4.084400   1.000000   1.000000
   40        4.169315      4.116652   1.000000   1.000000
   41        4.355236      4.380192   1.000000   1.000000
   42        4.568226      4.580555   1.000000   1.000000
   43        4.658738      4.661915   1.000000   1.000000
   44        5.005036      5.019956   1.000000   1.000000
   45        5.220309      5.279445   1.000000   1.000000
   46        5.494228      5.486974   1.000000   1.000000
   47        5.783651      5.691940   1.000000   1.000000
   48        8.255536      8.225686   0.000000   0.000000
   49        8.345561      8.337864   0.000000   0.000000
   50        8.469410      8.475123   0.000000   0.000000
   51        8.922182      8.901800   0.000000   0.000000
   52        9.082387      9.145841   0.000000   0.000000
   53        9.801830      9.884046   0.000000   0.000000
   54       10.072013      9.981845   0.000000   0.000000
   55       10.938339     10.915694   0.000000   0.000000
   56       11.333638     11.342754   0.000000   0.000000
 
  0.5000000E+00  0.1521739E+00  0.0000000E+00  0.8333333E-02
    1      -50.873620    -50.868832   1.000000   1.000000
    2      -50.811952    -50.807465   1.000000   1.000000
    3      -50.811916    -50.807436   1.000000   1.000000
    4      -46.089745    -46.094456   1.000000   1.000000
    5      -46.044409    -46.048911   1.000000   1.000000
    6      -46.044389    -46.048878   1.000000   1.000000
    7      -16.153013    -16.152748   1.000000   1.000000
    8      -16.134905    -16.135868   1.000000   1.000000
    9      -16.120465    -16.118791   1.000000   1.000000
   10      -16.107749    -16.108787   1.000000   1.000000
   11      -16.082487    -16.082070   1.000000   1.000000
   12      -16.078180    -16.078970   1.000000   1.000000
   13      -16.068136    -16.068652   1.000000   1.000000
   14      -16.067272    -16.066043   1.000000   1.000000
   15      -16.057153    -16.057517   1.000000   1.000000
   16      -16.048281    -16.048196   1.000000   1.000000
   17      -11.812924    -11.809776   1.000000   1.000000
   18      -11.557610    -11.561430   1.000000   1.000000
   19      -10.820850    -10.825759   1.000000   1.000000
   20      -10.748516    -10.722506   1.000000   1.000000
   21      -10.647964    -10.678012   1.000000   1.000000
   22      -10.550424    -10.540227   1.000000   1.000000
   23       -3.560778     -3.559439   1.000000   1.000000
   24       -3.335321     -3.337226   1.000000   1.000000
   25       -0.634233     -0.627453   1.000000   1.000000
   26       -0.437732     -0.440502   1.000000   1.000000
   27       -0.313330     -0.356114   1.000000   1.000000
   28       -0.181654     -0.162294   1.000000   1.000000
   29        0.020110      0.024104   1.000000   1.000000
   30        1.006596      1.093444   1.000000   1.000000
   31        1.440713      1.527656   1.000000   1.000000
   32        1.705688      1.781035   1.000000   1.000000
   33        2.226238      2.117911   1.000000   1.000000
   34        2.615196      2.373892   1.000000   1.000000
   35        2.693799      2.614568   1.000000   1.000000
   36        2.889932      2.853551   1.000000   1.000000
   37        3.074894      3.308910   1.000000   1.000000
   38        3.689068      3.619695   1.000000   1.000000
   39        3.955970      4.057557   1.000000   1.000000
   40        4.129470      4.093850   1.000000   1.000000
   41        4.356973      4.383771   1.000000   1.000000
   42        4.570464      4.575001   1.000000   1.000000
   43        4.656593      4.661799   1.000000   1.000000
   44        4.967292      5.004639   1.000000   1.000000
   45        5.218698      5.264143   1.000000   1.000000
   46        5.483370      5.491805   1.000000   1.000000
   47        5.790748      5.674659   1.000000   1.000000
   48        8.271571      8.233435   0.000000   0.000000
   49        8.350598      8.342459   0.000000   0.000000
   50        8.465946      8.472523   0.000000   0.000000
   51        8.893079      8.879827   0.000000   0.000000
   52        9.098357      9.165882   0.000000   0.000000
   53        9.775863      9.874318   0.000000   0.000000
   54       10.099798      9.991319   0.000000   0.000000
   55       10.915688     10.895162   0.000000   0.000000
   56       11.337323     11.344278   0.000000   0.000000
 
  0.5000000E+00  0.1739130E+00  0.0000000E+00  0.8333333E-02
    1      -50.873620    -50.868831   1.000000   1.000000
    2      -50.811951    -50.807464   1.000000   1.000000
    3      -50.811915    -50.807435   1.000000   1.000000
    4      -46.089744    -46.094455   1.000000   1.000000
    5      -46.044407    -46.048910   1.000000   1.000000
    6      -46.044387    -46.048877   1.000000   1.000000
    7      -16.155984    -16.155760   1.000000   1.000000
    8      -16.135130    -16.135971   1.000000   1.000000
    9      -16.119382    -16.117809   1.000000   1.000000
   10      -16.106058    -16.107081   1.000000   1.000000
   11      -16.083111    -16.082772   1.000000   1.000000
   12      -16.078055    -16.078809   1.000000   1.000000
   13      -16.068405    -16.068819   1.000000   1.000000
   14      -16.067195    -16.066017   1.000000   1.000000
   15      -16.057122    -16.057475   1.000000   1.000000
   16      -16.046745    -16.046676   1.000000   1.000000
   17      -11.818297    -11.814972   1.000000   1.000000
   18      -11.530535    -11.534837   1.000000   1.000000
   19      -10.836062    -10.840364   1.000000   1.000000
   20      -10.760892    -10.738573   1.000000   1.000000
   21      -10.653493    -10.679622   1.000000   1.000000
   22      -10.543939    -10.534227   1.000000   1.000000
   23       -3.580931     -3.579546   1.000000   1.000000
   24       -3.319624     -3.321743   1.000000   1.000000
   25       -0.652420     -0.646663   1.000000   1.000000
   26       -0.434410     -0.437958   1.000000   1.000000
   27       -0.311161     -0.357143   1.000000   1.000000
   28       -0.167585     -0.147852   1.000000   1.000000
   29        0.016582      0.019983   1.000000   1.000000
   30        0.993243      1.089827   1.000000   1.000000
   31        1.457716      1.580347   1.000000   1.000000
   32        1.729235      1.791151   1.000000   1.000000
   33        2.237343      2.131177   1.000000   1.000000
   34        2.619709      2.360625   1.000000   1.000000
   35        2.756526      2.631673   1.000000   1.000000
   36        2.905168      2.860152   1.000000   1.000000
   37        3.088643      3.361792   1.000000   1.000000
   38        3.685384      3.603918   1.000000   1.000000
   39        3.925958      4.020124   1.000000   1.000000
   40        4.086070      4.077152   1.000000   1.000000
   41        4.357327      4.384545   1.000000   1.000000
   42        4.572699      4.566422   1.000000   1.000000
   43        4.652635      4.662009   1.000000   1.000000
   44        4.928738      4.993073   1.000000   1.000000
   45        5.215773      5.237395   1.000000   1.000000
   46        5.470224      5.501247   1.000000   1.000000
   47        5.796078      5.657035   1.000000   1.000000
   48        8.288137      8.241188   0.000000   0.000000
   49        8.355921      8.348016   0.000000   0.000000
   50        8.462830      8.468923   0.000000   0.000000
   51        8.860177      8.855892   0.000000   0.000000
   52        9.117422      9.186158   0.000000   0.000000
   53        9.745289      9.850856   0.000000   0.000000
   54       10.129028     10.011714   0.000000   0.000000
   55       10.898463     10.882146   0.000000   0.000000
   56       11.335580     11.337931   0.000000   0.000000
 