 vasp.5.4.1 24Jun15 (build Jul 08 2015 18:11:14) complex                        
  
 executed on           IFC91_ompi date 2015.12.24  04:33:06
 running on    4 total cores
 distrk:  each k-point on    4 cores,    1 groups
 distr:  one band on NCORES_PER_BAND=   1 cores,    4 groups


--------------------------------------------------------------------------------------------------------


 INCAR:
 POTCAR:    PAW_PBE Bi_d 06Sep2000                
 POTCAR:    PAW_PBE O 08Apr2002                   
 POTCAR:    PAW_PBE Fe_pv 02Aug2007               
 POTCAR:    PAW_PBE Bi_d 06Sep2000                
   VRHFIN =Bi:                                                                  
   LEXCH  = PE                                                                  
   EATOM  =  1959.2045 eV,  143.9975 Ry                                         
                                                                                
   TITEL  = PAW_PBE Bi_d 06Sep2000                                              
   LULTRA =        F    use ultrasoft PP ?                                      
   IUNSCR =        1    unscreen: 0-lin 1-nonlin 2-no                           
   RPACOR =    2.200    partial core radius                                     
   POMASS =  208.980; ZVAL   =   15.000    mass and valenz                      
   RCORE  =    2.500    outmost cutoff radius                                   
   RWIGS  =    3.090; RWIGS  =    1.635    wigner-seitz radius (au A)           
   ENMAX  =  242.839; ENMIN  =  182.129 eV                                      
   ICORE  =        3    local potential                                         
   LCOR   =        T    correct aug charges                                     
   LPAW   =        T    paw PP                                                  
   EAUG   =  442.899                                                            
   DEXC   =    0.000                                                            
   RMAX   =    2.551    core radius for proj-oper                               
   RAUG   =    1.300    factor for augmentation sphere                          
   RDEP   =    2.650    radius for radial grids                                 
   RDEPT  =    2.039    core radius for aug-charge                              
                                                                                
   Atomic configuration                                                         
   16 entries                                                                   
     n  l   j            E        occ.                                          
     1  0  0.50    -90639.6581   2.0000                                         
     2  0  0.50    -16282.4666   2.0000                                         
     2  1  1.50    -13922.8286   6.0000                                         
     3  0  0.50     -3930.4763   2.0000                                         
     3  1  1.50     -3256.7013   6.0000                                         
     3  2  2.50     -2581.6168  10.0000                                         
     4  0  0.50      -902.2614   2.0000                                         
     4  1  1.50      -681.5915   6.0000                                         
     4  2  2.50      -429.8249  10.0000                                         
     4  3  3.50      -152.6004  14.0000                                         
     5  0  0.50      -157.7156   2.0000                                         
     5  1  1.50       -95.8054   6.0000                                         
     5  2  2.50       -27.0806  10.0000                                         
     6  0  0.50       -14.4732   2.0000                                         
     6  1  1.50        -4.5702   3.0000                                         
     5  3  2.50        -2.7212   0.0000                                         
   Description                                                                  
     l       E           TYP  RCUT    TYP  RCUT                                 
     2    -27.0805982     23  2.500                                             
     2     -1.3605826     23  2.500                                             
     0    -14.4732271     23  2.500                                             
     0      6.8029130     23  2.500                                             
     1     -4.5701651     23  2.500                                             
     1     13.6058260     23  2.500                                             
     3     -1.3605826      7  2.500                                             
  local pseudopotential read in
  partial core-charges read in
  partial kinetic energy density read in
  atomic valenz-charges read in
  non local Contribution for L=           2  read in
    real space projection operators read in
  non local Contribution for L=           2  read in
    real space projection operators read in
  non local Contribution for L=           0  read in
    real space projection operators read in
  non local Contribution for L=           0  read in
    real space projection operators read in
  non local Contribution for L=           1  read in
    real space projection operators read in
  non local Contribution for L=           1  read in
    real space projection operators read in
    PAW grid and wavefunctions read in
 
   number of l-projection  operators is LMAX  =           6
   number of lm-projection operators is LMMAX =          18
 
 POTCAR:    PAW_PBE O 08Apr2002                   
   VRHFIN =O: s2p4                                                              
   LEXCH  = PE                                                                  
   EATOM  =   432.3788 eV,   31.7789 Ry                                         
                                                                                
   TITEL  = PAW_PBE O 08Apr2002                                                 
   LULTRA =        F    use ultrasoft PP ?                                      
   IUNSCR =        1    unscreen: 0-lin 1-nonlin 2-no                           
   RPACOR =    1.200    partial core radius                                     
   POMASS =   16.000; ZVAL   =    6.000    mass and valenz                      
   RCORE  =    1.520    outmost cutoff radius                                   
   RWIGS  =    1.550; RWIGS  =    0.820    wigner-seitz radius (au A)           
   ENMAX  =  400.000; ENMIN  =  300.000 eV                                      
   ICORE  =        2    local potential                                         
   LCOR   =        T    correct aug charges                                     
   LPAW   =        T    paw PP                                                  
   EAUG   =  605.392                                                            
   DEXC   =    0.000                                                            
   RMAX   =    1.553    core radius for proj-oper                               
   RAUG   =    1.300    factor for augmentation sphere                          
   RDEP   =    1.550    radius for radial grids                                 
   RDEPT  =    1.329    core radius for aug-charge                              
                                                                                
   Atomic configuration                                                         
    4 entries                                                                   
     n  l   j            E        occ.                                          
     1  0  0.50      -514.6923   2.0000                                         
     2  0  0.50       -23.9615   2.0000                                         
     2  1  0.50        -9.0305   4.0000                                         
     3  2  1.50        -9.5241   0.0000                                         
   Description                                                                  
     l       E           TYP  RCUT    TYP  RCUT                                 
     0    -23.9615318     23  1.200                                             
     0     -9.5240782     23  1.200                                             
     1     -9.0304911     23  1.520                                             
     1      8.1634956     23  1.520                                             
     2     -9.5240782      7  1.500                                             
  local pseudopotential read in
  partial core-charges read in
  partial kinetic energy density read in
  kinetic energy density of atom read in
  atomic valenz-charges read in
  non local Contribution for L=           0  read in
    real space projection operators read in
  non local Contribution for L=           0  read in
    real space projection operators read in
  non local Contribution for L=           1  read in
    real space projection operators read in
  non local Contribution for L=           1  read in
    real space projection operators read in
    PAW grid and wavefunctions read in
 
   number of l-projection  operators is LMAX  =           4
   number of lm-projection operators is LMMAX =           8
 
 POTCAR:    PAW_PBE Fe_pv 02Aug2007               
   VRHFIN =Fe:  3pd7s1                                                          
   LEXCH  = PE                                                                  
   EATOM  =  2457.4239 eV,  180.6156 Ry                                         
                                                                                
   TITEL  = PAW_PBE Fe_pv 02Aug2007                                             
   LULTRA =        F    use ultrasoft PP ?                                      
   IUNSCR =        1    unscreen: 0-lin 1-nonlin 2-no                           
   RPACOR =    1.750    partial core radius                                     
   POMASS =   55.847; ZVAL   =   14.000    mass and valenz                      
   RCORE  =    2.200    outmost cutoff radius                                   
   RWIGS  =    2.200; RWIGS  =    1.164    wigner-seitz radius (au A)           
   ENMAX  =  293.238; ENMIN  =  219.928 eV                                      
   ICORE  =        3    local potential                                         
   LCOR   =        T    correct aug charges                                     
   LPAW   =        T    paw PP                                                  
   EAUG   =  578.342                                                            
   DEXC   =    0.000                                                            
   RMAX   =    2.249    core radius for proj-oper                               
   RAUG   =    1.300    factor for augmentation sphere                          
   RDEP   =    2.296    radius for radial grids                                 
   RDEPT  =    1.766    core radius for aug-charge                              
                                                                                
   Atomic configuration                                                         
    8 entries                                                                   
     n  l   j            E        occ.                                          
     1  0  0.50     -6993.8440   2.0000                                         
     2  0  0.50      -814.6047   2.0000                                         
     2  1  1.50      -693.3689   6.0000                                         
     3  0  0.50       -89.4732   2.0000                                         
     3  1  1.50       -55.6373   6.0000                                         
     3  2  2.50        -3.8151   7.0000                                         
     4  0  0.50        -4.2551   1.0000                                         
     4  3  2.50        -1.3606   0.0000                                         
   Description                                                                  
     l       E           TYP  RCUT    TYP  RCUT                                 
     1    -55.6372668     23  2.000                                             
     1     -5.4423304     23  2.000                                             
     2     -3.8151096     23  2.200                                             
     2     -5.1756922     23  2.200                                             
     0     -4.2550951     23  2.200                                             
     0     27.2116520     23  2.200                                             
     3     -1.3605826     23  2.200                                             
  local pseudopotential read in
  partial core-charges read in
  partial kinetic energy density read in
  atomic valenz-charges read in
  non local Contribution for L=           1  read in
    real space projection operators read in
  non local Contribution for L=           1  read in
    real space projection operators read in
  non local Contribution for L=           2  read in
    real space projection operators read in
  non local Contribution for L=           2  read in
    real space projection operators read in
  non local Contribution for L=           0  read in
    real space projection operators read in
  non local Contribution for L=           0  read in
    real space projection operators read in
    PAW grid and wavefunctions read in
 
   number of l-projection  operators is LMAX  =           6
   number of lm-projection operators is LMMAX =          18
 
  PAW_PBE Bi_d 06Sep2000                :
 energy of atom  1       EATOM=-1959.2045
 kinetic energy error for atom=    0.0040 (will be added to EATOM!!)
  PAW_PBE O 08Apr2002                   :
 energy of atom  2       EATOM= -432.3788
 kinetic energy error for atom=    0.0208 (will be added to EATOM!!)
  PAW_PBE Fe_pv 02Aug2007               :
 energy of atom  3       EATOM=-2457.4239
 kinetic energy error for atom=    0.0062 (will be added to EATOM!!)
 
 
 POSCAR: Bi    O   Fe                            
  positions in direct lattice
  velocities in cartesian coordinates
 exchange correlation table for  LEXCH =        8
   RHO(1)=    0.500       N(1)  =     2000
   RHO(2)=  100.500       N(2)  =     4000
 


--------------------------------------------------------------------------------------------------------


 ion  position               nearest neighbor table
   1  0.279  0.279  0.279-   6 2.32   7 2.32   8 2.32   5 2.50   3 2.50   4 2.50   9 3.11  10 3.34
                            10 3.34  10 3.34
   2  0.779  0.779  0.779-   3 2.32   4 2.32   5 2.32   8 2.50   6 2.50   7 2.50  10 3.11   9 3.34
                             9 3.34   9 3.34
   3  0.669  0.216  0.813-   9 1.98  10 2.13   2 2.32   1 2.50
   4  0.216  0.813  0.669-   9 1.98  10 2.13   2 2.32   1 2.50
   5  0.813  0.669  0.216-   9 1.98  10 2.13   2 2.32   1 2.50
   6  0.313  0.716  0.169-  10 1.99   9 2.13   1 2.32   2 2.50
   7  0.169  0.313  0.716-  10 1.99   9 2.13   1 2.32   2 2.50
   8  0.716  0.169  0.313-  10 1.99   9 2.13   1 2.32   2 2.50
   9  0.500  0.500  0.500-   5 1.98   4 1.98   3 1.98   6 2.13   8 2.13   7 2.13   1 3.11   2 3.34
                             2 3.34   2 3.34
  10  1.000  1.000  1.000-   7 1.99   8 1.99   6 1.99   5 2.13   3 2.13   4 2.13   2 3.11   1 3.34
                             1 3.34   1 3.34
 
  LATTYP: Found a trigonal (rhomboedric) cell.
 ALAT       =     5.7059564720
 COS(alpha) =     0.5141197773
  
  Lattice vectors:
  
 A1 = (   5.7059564708,   0.0000940756,   0.0000660577)
 A2 = (   2.9334643795,   4.8941522239,   0.0000660577)
 A3 = (   2.9334643795,   1.6618124562,   4.6033797752)


Analysis of symmetry for initial positions (statically):
=====================================================================
 Subroutine PRICEL returns:
 Original cell was already a primitive cell.
 

 Routine SETGRP: Setting up the symmetry group for a 
 trigonal (rhombohedral) supercell.


 Subroutine GETGRP returns: Found  6 space group operations
 (whereof  3 operations were pure point group operations)
 out of a pool of 12 trial point group operations.


The static configuration has the point symmetry C_3 .
 The point group associated with its full space group is C_3v.


Analysis of symmetry for dynamics (positions and initial velocities):
=====================================================================
 Subroutine PRICEL returns:
 Original cell was already a primitive cell.
 

 Routine SETGRP: Setting up the symmetry group for a 
 trigonal (rhombohedral) supercell.


 Subroutine GETGRP returns: Found  6 space group operations
 (whereof  3 operations were pure point group operations)
 out of a pool of 12 trial point group operations.


The dynamic configuration has the point symmetry C_3 .
 The point group associated with its full space group is C_3v.


Analysis of magnetic symmetry:
=====================================================================
 Subroutine PRICEL returns:
 Original cell was already a primitive cell.
 

 Subroutine MAGSYM returns: Found  6 space group operations
 (whereof  3 operations were pure point group operations)
 out of a pool of  6 trial space group operations
 (whereof  3 operations were pure point group operations)
 and found also     1 'primitive' translations


The magnetic configuration has the point symmetry C_3 .
 The point group associated with its full space group is C_3v.
 
 
 KPOINTS: Gamma centred mesh                      

Automatic generation of k-mesh.
Space group operators:
 irot       det(A)        alpha          n_x          n_y          n_z        tau_x        tau_y        tau_z
    1     1.000000     0.000000     1.000000     0.000000     0.000000     0.000000     0.000000     0.000000
    2     1.000000   120.000000    -0.822229    -0.465794    -0.327070     0.000000     0.000000     0.000000
    3     1.000000   120.000000     0.822229     0.465794     0.327070     0.000000     0.000000     0.000000
    4    -1.000000   180.000000    -0.000000    -0.574657     0.818394     0.499993     0.499992     0.499988
    5    -1.000000   180.000000    -0.492904     0.870084     0.000000     0.499988     0.499993     0.499992
    6    -1.000000   180.000000    -0.492904     0.295426     0.818394     0.499992     0.499988     0.499993
 
 Subroutine IBZKPT returns following result:
 ===========================================
 
 Found     65 irreducible k-points:
 
 Following reciprocal coordinates:
            Coordinates               Weight
  0.000000  0.000000  0.000000      1.000000
  0.125000 -0.000000 -0.000000      6.000000
  0.250000 -0.000000 -0.000000      6.000000
  0.375000 -0.000000  0.000000      6.000000
  0.500000 -0.000000 -0.000000      3.000000
  0.125000  0.125000 -0.000000      6.000000
  0.250000  0.125000  0.000000     12.000000
  0.375000  0.125000  0.000000     12.000000
  0.500000  0.125000  0.000000     12.000000
 -0.375000  0.125000  0.000000     12.000000
 -0.250000  0.125000 -0.000000     12.000000
 -0.125000  0.125000  0.000000      6.000000
  0.250000  0.250000 -0.000000      6.000000
  0.375000  0.250000 -0.000000     12.000000
  0.500000  0.250000  0.000000     12.000000
 -0.375000  0.250000 -0.000000     12.000000
 -0.250000  0.250000  0.000000      6.000000
  0.375000  0.375000  0.000000      6.000000
  0.500000  0.375000  0.000000     12.000000
 -0.375000  0.375000  0.000000      6.000000
  0.500000  0.500000 -0.000000      3.000000
  0.125000  0.125000  0.125000      2.000000
  0.250000  0.125000  0.125000      6.000000
  0.375000  0.125000  0.125000      6.000000
  0.500000  0.125000  0.125000      6.000000
 -0.375000  0.125000  0.125000      6.000000
 -0.250000  0.125000  0.125000      6.000000
 -0.125000  0.125000  0.125000      6.000000
  0.250000  0.250000  0.125000      6.000000
  0.375000  0.250000  0.125000     12.000000
  0.500000  0.250000  0.125000     12.000000
 -0.375000  0.250000  0.125000     12.000000
 -0.250000  0.250000  0.125000     12.000000
 -0.125000  0.250000  0.125000     12.000000
  0.375000  0.375000  0.125000      6.000000
  0.500000  0.375000  0.125000     12.000000
 -0.375000  0.375000  0.125000     12.000000
 -0.250000  0.375000  0.125000     12.000000
 -0.125000  0.375000  0.125000     12.000000
  0.500000  0.500000  0.125000      6.000000
 -0.375000  0.500000  0.125000     12.000000
 -0.250000  0.500000  0.125000     12.000000
 -0.125000  0.500000  0.125000      6.000000
 -0.375000 -0.375000  0.125000      6.000000
 -0.250000 -0.375000  0.125000     12.000000
 -0.250000 -0.250000  0.125000      6.000000
  0.250000  0.250000  0.250000      2.000000
  0.375000  0.250000  0.250000      6.000000
  0.500000  0.250000  0.250000      6.000000
 -0.375000  0.250000  0.250000      6.000000
 -0.250000  0.250000  0.250000      6.000000
  0.375000  0.375000  0.250000      6.000000
  0.500000  0.375000  0.250000     12.000000
 -0.375000  0.375000  0.250000     12.000000
 -0.250000  0.375000  0.250000     12.000000
  0.500000  0.500000  0.250000      6.000000
 -0.375000  0.500000  0.250000     12.000000
 -0.250000  0.500000  0.250000      6.000000
 -0.375000 -0.375000  0.250000      6.000000
  0.375000  0.375000  0.375000      2.000000
  0.500000  0.375000  0.375000      6.000000
 -0.375000  0.375000  0.375000      6.000000
  0.500000  0.500000  0.375000      6.000000
 -0.375000  0.500000  0.375000      6.000000
  0.500000  0.500000  0.500000      1.000000
 
 Following cartesian coordinates:
            Coordinates               Weight
  0.000000  0.000000  0.000000      1.000000
  0.021907 -0.013131 -0.009220      6.000000
  0.043815 -0.026261 -0.018440      6.000000
  0.065722 -0.039392 -0.027660      6.000000
  0.087629 -0.052523 -0.036880      3.000000
  0.021907  0.012410 -0.018440      6.000000
  0.043814 -0.000720 -0.027660     12.000000
  0.065721 -0.013851 -0.036880     12.000000
  0.087629 -0.026982 -0.046100     12.000000
 -0.065722  0.064933  0.018440     12.000000
 -0.043815  0.051802  0.009220     12.000000
 -0.021908  0.038672  0.000000      6.000000
  0.043814  0.024821 -0.036880      6.000000
  0.065721  0.011690 -0.046100     12.000000
  0.087628 -0.001441 -0.055320     12.000000
 -0.065722  0.090474  0.009220     12.000000
 -0.043815  0.077343  0.000000      6.000000
  0.065721  0.037231 -0.055320      6.000000
  0.087628  0.024100 -0.064540     12.000000
 -0.065723  0.116015  0.000000      6.000000
  0.087628  0.049641 -0.073760      3.000000
  0.021907  0.012410  0.008714      2.000000
  0.043814 -0.000721 -0.000506      6.000000
  0.065721 -0.013851 -0.009726      6.000000
  0.087628 -0.026982 -0.018946      6.000000
 -0.065722  0.064933  0.045594      6.000000
 -0.043815  0.051802  0.036374      6.000000
 -0.021908  0.038671  0.027154      6.000000
  0.043814  0.024820 -0.009726      6.000000
  0.065721  0.011690 -0.018946     12.000000
  0.087628 -0.001441 -0.028166     12.000000
 -0.065723  0.090474  0.036374     12.000000
 -0.043815  0.077343  0.027154     12.000000
 -0.021908  0.064212  0.017934     12.000000
  0.065721  0.037231 -0.028166      6.000000
  0.087628  0.024100 -0.037386     12.000000
 -0.065723  0.116015  0.027154     12.000000
 -0.043816  0.102884  0.017934     12.000000
 -0.021909  0.089753  0.008714     12.000000
  0.087627  0.049641 -0.046606      6.000000
 -0.065723  0.141556  0.017934     12.000000
 -0.043816  0.128425  0.008714     12.000000
 -0.021909  0.115294 -0.000506      6.000000
 -0.065721 -0.037231  0.082475      6.000000
 -0.043814 -0.050362  0.073255     12.000000
 -0.043814 -0.024821  0.064034      6.000000
  0.043813  0.024820  0.017428      2.000000
  0.065721  0.011690  0.008208      6.000000
  0.087628 -0.001441 -0.001012      6.000000
 -0.065723  0.090474  0.063529      6.000000
 -0.043816  0.077343  0.054308      6.000000
  0.065720  0.037231 -0.001012      6.000000
  0.087627  0.024100 -0.010232     12.000000
 -0.065723  0.116015  0.054308     12.000000
 -0.043816  0.102884  0.045088     12.000000
  0.087627  0.049641 -0.019452      6.000000
 -0.065724  0.141556  0.045088     12.000000
 -0.043816  0.128425  0.035868      6.000000
 -0.065721 -0.037231  0.109629      6.000000
  0.065720  0.037230  0.026142      2.000000
  0.087627  0.024100  0.016922      6.000000
 -0.065724  0.116014  0.081463      6.000000
  0.087627  0.049641  0.007702      6.000000
 -0.065724  0.141555  0.072243      6.000000
  0.087627  0.049641  0.034856      1.000000
 
 TETIRR: Found    256 inequivalent tetrahedra from     3072


--------------------------------------------------------------------------------------------------------




 Dimension of arrays:
   k-points           NKPTS =     65   k-points in BZ     NKDIM =     65   number of bands    NBANDS=     56
   number of dos      NEDOS =   2000   number of ions     NIONS =     10
   non local maximal  LDIM  =      6   non local SUM 2l+1 LMDIM =     18
   total plane-waves  NPLWV =  32768
   max r-space proj   IRMAX =      1   max aug-charges    IRDMAX=  11463
   dimension x,y,z NGX =    32 NGY =   32 NGZ =   32
   dimension x,y,z NGXF=    64 NGYF=   64 NGZF=   64
   support grid    NGXF=    64 NGYF=   64 NGZF=   64
   ions per type =               2   6   2
 NGX,Y,Z   is equivalent  to a cutoff of   9.32,  9.32,  9.32 a.u.
 NGXF,Y,Z  is equivalent  to a cutoff of  18.65, 18.65, 18.65 a.u.


 I would recommend the setting:
   dimension x,y,z NGX =    32 NGY =   32 NGZ =   32
 SYSTEM =  unknown system                          
 POSCAR =  Bi    O   Fe                            

 Startparameter for this run:
   NWRITE =      2    write-flag & timer
   PREC   = normal    normal or accurate (medium, high low for compatibility)
   ISTART =      0    job   : 0-new  1-cont  2-samecut
   ICHARG =     11    charge: 1-file 2-atom 10-const
   ISPIN  =      2    spin polarized calculation?
   LNONCOLLINEAR =      F non collinear calculations
   LSORBIT =      F    spin-orbit coupling
   INIWAV =      1    electr: 0-lowe 1-rand  2-diag
   LASPH  =      T    aspherical Exc in radial PAW
   METAGGA=      F    non-selfconsistent MetaGGA calc.

 Electronic Relaxation 1
   ENCUT  =  520.0 eV  38.22 Ry    6.18 a.u.  10.61 10.61 10.61*2*pi/ulx,y,z
   ENINI  =  520.0     initial cutoff
   ENAUG  =  605.4 eV  augmentation charge cutoff
   NELM   =     60;   NELMIN=  2; NELMDL= -5     # of ELM steps 
   EDIFF  = 0.1E-06   stopping-criterion for ELM
   LREAL  =      F    real-space projection
   NLSPLINE    = F    spline interpolate recip. space projectors
   LCOMPAT=      F    compatible to vasp.4.4
   GGA_COMPAT  = T    GGA compatible to vasp.4.4-vasp.4.6
   LMAXPAW     = -100 max onsite density
   LMAXMIX     =    6 max onsite mixed and CHGCAR
   VOSKOWN=      0    Vosko Wilk Nusair interpolation
   ROPT   =    0.00000   0.00000   0.00000
 Ionic relaxation
   EDIFFG = 0.1E-05   stopping-criterion for IOM
   NSW    =      0    number of steps for IOM
   NBLOCK =      1;   KBLOCK =      1    inner block; outer block 
   IBRION =     -1    ionic relax: 0-MD 1-quasi-New 2-CG
   NFREE  =      0    steps in history (QN), initial steepest desc. (CG)
   ISIF   =      2    stress and relaxation
   IWAVPR =     10    prediction:  0-non 1-charg 2-wave 3-comb
   ISYM   =      2    0-nonsym 1-usesym 2-fastsym
   LCORR  =      T    Harris-Foulkes like correction to forces

   POTIM  = 0.5000    time-step for ionic-motion
   TEIN   =    0.0    initial temperature
   TEBEG  =    0.0;   TEEND  =   0.0 temperature during run
   SMASS  =  -3.00    Nose mass-parameter (am)
   estimated Nose-frequenzy (Omega)   =  0.10E-29 period in steps =****** mass=  -0.744E-27a.u.
   SCALEE = 1.0000    scale energy and forces
   NPACO  =    256;   APACO  = 16.0  distance and # of slots for P.C.
   PSTRESS=    0.0 pullay stress

  Mass of Ions in am
   POMASS = 208.98 16.00 55.85
  Ionic Valenz
   ZVAL   =  15.00  6.00 14.00
  Atomic Wigner-Seitz radii
   RWIGS  =  -1.00 -1.00 -1.00
  virtual crystal weights 
   VCA    =   1.00  1.00  1.00
   NELECT =      94.0000    total number of electrons
   NUPDOWN=      -1.0000    fix difference up-down

 DOS related values:
   EMIN   =  10.00;   EMAX   =-10.00  energy-range for DOS
   EFERMI =   0.00
   ISMEAR =    -5;   SIGMA  =   0.20  broadening in eV -4-tet -1-fermi 0-gaus

 Electronic relaxation 2 (details)
   IALGO  =     38    algorithm
   LDIAG  =      T    sub-space diagonalisation (order eigenvalues)
   LSUBROT=      F    optimize rotation matrix (better conditioning)
   TURBO    =      0    0=normal 1=particle mesh
   IRESTART =      0    0=no restart 2=restart with 2 vectors
   NREBOOT  =      0    no. of reboots
   NMIN     =      0    reboot dimension
   EREF     =   0.00    reference energy to select bands
   IMIX   =      4    mixing-type and parameters
     AMIX     =   0.40;   BMIX     =  1.00
     AMIX_MAG =   1.60;   BMIX_MAG =  1.00
     AMIN     =   0.10
     WC   =   100.;   INIMIX=   1;  MIXPRE=   1;  MAXMIX= -45

 Intra band minimization:
   WEIMIN = 0.0000     energy-eigenvalue tresh-hold
   EBREAK =  0.45E-09  absolut break condition
   DEPER  =   0.30     relativ break condition  

   TIME   =   0.40     timestep for ELM

  volume/ion in A,a.u.               =      12.86        86.75
  Fermi-wavevector in a.u.,A,eV,Ry     =   1.474889  2.787136 29.596726  2.175298
  Thomas-Fermi vector in A             =   2.589605
 
 Write flags
   LWAVE  =      F    write WAVECAR
   LCHARG =      T    write CHGCAR
   LVTOT  =      F    write LOCPOT, total local potential
   LVHAR  =      F    write LOCPOT, Hartree potential only
   LELF   =      F    write electronic localiz. function (ELF)
   LORBIT =     11    0 simple, 1 ext, 2 COOP (PROOUT)


 Dipole corrections
   LMONO  =      F    monopole corrections only (constant potential shift)
   LDIPOL =      F    correct potential (dipole corrections)
   IDIPOL =      0    1-x, 2-y, 3-z, 4-all directions 
   EPSILON=  1.0000000 bulk dielectric constant

 LDA+U is selected, type is set to LDAUTYPE =  2
   angular momentum for each species LDAUL =    -1   -1    2
   U (eV)           for each species LDAUU =   0.0  0.0  4.0
   J (eV)           for each species LDAUJ =   0.0  0.0  0.0
 Exchange correlation treatment:
   GGA     =    --    GGA type
   LEXCH   =     8    internal setting for exchange type
   VOSKOWN=      0    Vosko Wilk Nusair interpolation
   LHFCALC =     F    Hartree Fock is set to
   LHFONE  =     F    Hartree Fock one center treatment
   AEXX    =    0.0000 exact exchange contribution

 Linear response parameters
   LEPSILON=     F    determine dielectric tensor
   LRPA    =     F    only Hartree local field effects (RPA)
   LNABLA  =     F    use nabla operator in PAW spheres
   LVEL    =     F    velocity operator in full k-point grid
   LINTERFAST=   F  fast interpolation
   KINTER  =     0    interpolate to denser k-point grid
   CSHIFT  =0.1000    complex shift for real part using Kramers Kronig
   OMEGAMAX=  -1.0    maximum frequency
   DEG_THRESHOLD= 0.2000000E-02 threshold for treating states as degnerate
   RTIME   =    0.100 relaxation time in fs

 Orbital magnetization related:
   ORBITALMAG=     F  switch on orbital magnetization
   LCHIMAG   =     F  perturbation theory with respect to B field
   DQ        =  0.001000  dq finite difference perturbation B field



--------------------------------------------------------------------------------------------------------


 Static calculation
 charge density and potential remain constant during run
 spin polarized calculation
 Variant of blocked Davidson
 Davidson routine will perform the subspace rotation
 perform sub-space diagonalisation
    after iterative eigenvector-optimisation
 no mixing
 using additional bands            9
 reciprocal scheme for non local part
 use partial core corrections
 calculate Harris-corrections to forces 
   (improved forces if not selfconsistent)
 use gradient corrections 
 WARNING: stress and forces are not correct
  (second derivative of E(xc) not defined)
 use of overlap-Matrix (Vanderbilt PP)
 Fermi weights with tetrahedron method with Bloechl corrections


--------------------------------------------------------------------------------------------------------


  energy-cutoff  :      520.00
  volume of cell :      128.55
      direct lattice vectors                 reciprocal lattice vectors
     5.705956471  0.000094076  0.000066058     0.175258041 -0.105045435 -0.073760460
     2.933464379  4.894152224  0.000066058    -0.000002515  0.204327982 -0.073760460
     2.933464379  1.661812456  4.603379775    -0.000002515 -0.000001425  0.217233814

  length of vectors
     5.705956472  5.705956472  5.705956472     0.217233814  0.217233814  0.217233814


 
 k-points in units of 2pi/SCALE and weight: Gamma centred mesh                      
   0.00000000  0.00000000  0.00000000       0.002
   0.02190726 -0.01313068 -0.00922006       0.012
   0.04381451 -0.02626136 -0.01844011       0.012
   0.06572177 -0.03939204 -0.02766017       0.012
   0.08762902 -0.05252272 -0.03688023       0.006
   0.02190694  0.01241032 -0.01844011       0.012
   0.04381420 -0.00072036 -0.02766017       0.023
   0.06572145 -0.01385104 -0.03688023       0.023
   0.08762871 -0.02698172 -0.04610029       0.023
  -0.06572208  0.06493304  0.01844011       0.023
  -0.04381482  0.05180236  0.00922006       0.023
  -0.02190757  0.03867168  0.00000000       0.012
   0.04381388  0.02482064 -0.03688023       0.012
   0.06572114  0.01168996 -0.04610029       0.023
   0.08762839 -0.00144072 -0.05532034       0.023
  -0.06572239  0.09047403  0.00922006       0.023
  -0.04381514  0.07734335  0.00000000       0.012
   0.06572082  0.03723096 -0.05532034       0.012
   0.08762808  0.02410028 -0.06454040       0.023
  -0.06572271  0.11601503  0.00000000       0.012
   0.08762776  0.04964127 -0.07376046       0.006
   0.02190663  0.01241014  0.00871411       0.004
   0.04381388 -0.00072054 -0.00050595       0.012
   0.06572114 -0.01385122 -0.00972600       0.012
   0.08762839 -0.02698190 -0.01894606       0.012
  -0.06572239  0.06493286  0.04559434       0.012
  -0.04381514  0.05180218  0.03637428       0.012
  -0.02190788  0.03867150  0.02715423       0.012
   0.04381357  0.02482046 -0.00972600       0.012
   0.06572082  0.01168978 -0.01894606       0.023
   0.08762808 -0.00144090 -0.02816612       0.023
  -0.06572271  0.09047386  0.03637428       0.023
  -0.04381545  0.07734318  0.02715423       0.023
  -0.02190820  0.06421250  0.01793417       0.023
   0.06572051  0.03723078 -0.02816612       0.012
   0.08762776  0.02410010 -0.03738618       0.023
  -0.06572302  0.11601485  0.02715423       0.023
  -0.04381577  0.10288417  0.01793417       0.023
  -0.02190851  0.08975349  0.00871411       0.023
   0.08762745  0.04964110 -0.04660623       0.012
  -0.06572334  0.14155585  0.01793417       0.023
  -0.04381608  0.12842517  0.00871411       0.023
  -0.02190883  0.11529449 -0.00050595       0.012
  -0.06572114 -0.03723113  0.08247457       0.012
  -0.04381388 -0.05036181  0.07325451       0.023
  -0.04381420 -0.02482081  0.06403446       0.012
   0.04381325  0.02482028  0.01742822       0.004
   0.06572051  0.01168960  0.00820817       0.012
   0.08762776 -0.00144108 -0.00101189       0.012
  -0.06572302  0.09047368  0.06352851       0.012
  -0.04381577  0.07734300  0.05430845       0.012
   0.06572019  0.03723060 -0.00101189       0.012
   0.08762745  0.02409992 -0.01023195       0.023
  -0.06572334  0.11601468  0.05430845       0.023
  -0.04381608  0.10288400  0.04508840       0.023
   0.08762713  0.04964092 -0.01945201       0.012
  -0.06572365  0.14155567  0.04508840       0.023
  -0.04381640  0.12842499  0.03586834       0.012
  -0.06572145 -0.03723131  0.10962880       0.012
   0.06571988  0.03723042  0.02614234       0.004
   0.08762713  0.02409974  0.01692228       0.012
  -0.06572365  0.11601450  0.08146268       0.012
   0.08762682  0.04964074  0.00770222       0.012
  -0.06572397  0.14155550  0.07224262       0.012
   0.08762651  0.04964056  0.03485645       0.002
 
 k-points in reciprocal lattice and weights: Gamma centred mesh                      
   0.00000000  0.00000000  0.00000000       0.002
   0.12500000 -0.00000000 -0.00000000       0.012
   0.25000000 -0.00000000 -0.00000000       0.012
   0.37500000 -0.00000000  0.00000000       0.012
   0.50000000 -0.00000000 -0.00000000       0.006
   0.12500000  0.12500000 -0.00000000       0.012
   0.25000000  0.12500000  0.00000000       0.023
   0.37500000  0.12500000  0.00000000       0.023
   0.50000000  0.12500000  0.00000000       0.023
  -0.37500000  0.12500000  0.00000000       0.023
  -0.25000000  0.12500000 -0.00000000       0.023
  -0.12500000  0.12500000  0.00000000       0.012
   0.25000000  0.25000000 -0.00000000       0.012
   0.37500000  0.25000000 -0.00000000       0.023
   0.50000000  0.25000000  0.00000000       0.023
  -0.37500000  0.25000000 -0.00000000       0.023
  -0.25000000  0.25000000  0.00000000       0.012
   0.37500000  0.37500000  0.00000000       0.012
   0.50000000  0.37500000  0.00000000       0.023
  -0.37500000  0.37500000  0.00000000       0.012
   0.50000000  0.50000000 -0.00000000       0.006
   0.12500000  0.12500000  0.12500000       0.004
   0.25000000  0.12500000  0.12500000       0.012
   0.37500000  0.12500000  0.12500000       0.012
   0.50000000  0.12500000  0.12500000       0.012
  -0.37500000  0.12500000  0.12500000       0.012
  -0.25000000  0.12500000  0.12500000       0.012
  -0.12500000  0.12500000  0.12500000       0.012
   0.25000000  0.25000000  0.12500000       0.012
   0.37500000  0.25000000  0.12500000       0.023
   0.50000000  0.25000000  0.12500000       0.023
  -0.37500000  0.25000000  0.12500000       0.023
  -0.25000000  0.25000000  0.12500000       0.023
  -0.12500000  0.25000000  0.12500000       0.023
   0.37500000  0.37500000  0.12500000       0.012
   0.50000000  0.37500000  0.12500000       0.023
  -0.37500000  0.37500000  0.12500000       0.023
  -0.25000000  0.37500000  0.12500000       0.023
  -0.12500000  0.37500000  0.12500000       0.023
   0.50000000  0.50000000  0.12500000       0.012
  -0.37500000  0.50000000  0.12500000       0.023
  -0.25000000  0.50000000  0.12500000       0.023
  -0.12500000  0.50000000  0.12500000       0.012
  -0.37500000 -0.37500000  0.12500000       0.012
  -0.25000000 -0.37500000  0.12500000       0.023
  -0.25000000 -0.25000000  0.12500000       0.012
   0.25000000  0.25000000  0.25000000       0.004
   0.37500000  0.25000000  0.25000000       0.012
   0.50000000  0.25000000  0.25000000       0.012
  -0.37500000  0.25000000  0.25000000       0.012
  -0.25000000  0.25000000  0.25000000       0.012
   0.37500000  0.37500000  0.25000000       0.012
   0.50000000  0.37500000  0.25000000       0.023
  -0.37500000  0.37500000  0.25000000       0.023
  -0.25000000  0.37500000  0.25000000       0.023
   0.50000000  0.50000000  0.25000000       0.012
  -0.37500000  0.50000000  0.25000000       0.023
  -0.25000000  0.50000000  0.25000000       0.012
  -0.37500000 -0.37500000  0.25000000       0.012
   0.37500000  0.37500000  0.37500000       0.004
   0.50000000  0.37500000  0.37500000       0.012
  -0.37500000  0.37500000  0.37500000       0.012
   0.50000000  0.50000000  0.37500000       0.012
  -0.37500000  0.50000000  0.37500000       0.012
   0.50000000  0.50000000  0.50000000       0.002
 
 position of ions in fractional coordinates (direct lattice) 
   0.27926788  0.27926791  0.27926776
   0.77927515  0.77927986  0.77927604
   0.66933497  0.21567617  0.81309678
   0.21567675  0.81309505  0.66933551
   0.81309678  0.66933485  0.21567759
   0.31311865  0.71566085  0.16932712
   0.16932718  0.31311681  0.71566175
   0.71566294  0.16932687  0.31311770
   0.49999959  0.49999923  0.49999828
   0.99999698  0.99999673  0.99999673
 
 position of ions in cartesian coordinates  (Angst):
   3.23193481  1.83089655  1.28561244
   9.01847828  5.10899818  3.58740652
   6.83706504  2.40682934  3.74305173
   5.57929941  5.09174133  3.08127351
   7.23564730  3.63431886  0.99294377
   4.38272211  3.78397254  0.77954501
   3.98405877  2.72175285  3.29449468
   5.49877554  1.34912169  1.44145815
   5.78643295  3.27802274  2.30174801
  11.57284878  6.55603730  4.60349682
 


--------------------------------------------------------------------------------------------------------


 k-point  1 :   0.0000 0.0000 0.0000  plane waves:    3497
 k-point  2 :   0.1250-0.0000-0.0000  plane waves:    3473
 k-point  3 :   0.2500-0.0000-0.0000  plane waves:    3478
 k-point  4 :   0.3750-0.0000 0.0000  plane waves:    3465
 k-point  5 :   0.5000-0.0000-0.0000  plane waves:    3464
 k-point  6 :   0.1250 0.1250-0.0000  plane waves:    3474
 k-point  7 :   0.2500 0.1250 0.0000  plane waves:    3471
 k-point  8 :   0.3750 0.1250 0.0000  plane waves:    3470
 k-point  9 :   0.5000 0.1250 0.0000  plane waves:    3461
 k-point 10 :  -0.3750 0.1250 0.0000  plane waves:    3463
 k-point 11 :  -0.2500 0.1250-0.0000  plane waves:    3463
 k-point 12 :  -0.1250 0.1250 0.0000  plane waves:    3481
 k-point 13 :   0.2500 0.2500-0.0000  plane waves:    3471
 k-point 14 :   0.3750 0.2500-0.0000  plane waves:    3464
 k-point 15 :   0.5000 0.2500 0.0000  plane waves:    3455
 k-point 16 :  -0.3750 0.2500-0.0000  plane waves:    3459
 k-point 17 :  -0.2500 0.2500 0.0000  plane waves:    3458
 k-point 18 :   0.3750 0.3750 0.0000  plane waves:    3451
 k-point 19 :   0.5000 0.3750 0.0000  plane waves:    3452
 k-point 20 :  -0.3750 0.3750 0.0000  plane waves:    3448
 k-point 21 :   0.5000 0.5000-0.0000  plane waves:    3446
 k-point 22 :   0.1250 0.1250 0.1250  plane waves:    3479
 k-point 23 :   0.2500 0.1250 0.1250  plane waves:    3476
 k-point 24 :   0.3750 0.1250 0.1250  plane waves:    3458
 k-point 25 :   0.5000 0.1250 0.1250  plane waves:    3470
 k-point 26 :  -0.3750 0.1250 0.1250  plane waves:    3470
 k-point 27 :  -0.2500 0.1250 0.1250  plane waves:    3477
 k-point 28 :  -0.1250 0.1250 0.1250  plane waves:    3467
 k-point 29 :   0.2500 0.2500 0.1250  plane waves:    3468
 k-point 30 :   0.3750 0.2500 0.1250  plane waves:    3463
 k-point 31 :   0.5000 0.2500 0.1250  plane waves:    3463
 k-point 32 :  -0.3750 0.2500 0.1250  plane waves:    3454
 k-point 33 :  -0.2500 0.2500 0.1250  plane waves:    3467
 k-point 34 :  -0.1250 0.2500 0.1250  plane waves:    3476
 k-point 35 :   0.3750 0.3750 0.1250  plane waves:    3456
 k-point 36 :   0.5000 0.3750 0.1250  plane waves:    3455
 k-point 37 :  -0.3750 0.3750 0.1250  plane waves:    3454
 k-point 38 :  -0.2500 0.3750 0.1250  plane waves:    3457
 k-point 39 :  -0.1250 0.3750 0.1250  plane waves:    3463
 k-point 40 :   0.5000 0.5000 0.1250  plane waves:    3451
 k-point 41 :  -0.3750 0.5000 0.1250  plane waves:    3440
 k-point 42 :  -0.2500 0.5000 0.1250  plane waves:    3449
 k-point 43 :  -0.1250 0.5000 0.1250  plane waves:    3454
 k-point 44 :  -0.3750-0.3750 0.1250  plane waves:    3450
 k-point 45 :  -0.2500-0.3750 0.1250  plane waves:    3461
 k-point 46 :  -0.2500-0.2500 0.1250  plane waves:    3458
 k-point 47 :   0.2500 0.2500 0.2500  plane waves:    3461
 k-point 48 :   0.3750 0.2500 0.2500  plane waves:    3460
 k-point 49 :   0.5000 0.2500 0.2500  plane waves:    3468
 k-point 50 :  -0.3750 0.2500 0.2500  plane waves:    3459
 k-point 51 :  -0.2500 0.2500 0.2500  plane waves:    3452
 k-point 52 :   0.3750 0.3750 0.2500  plane waves:    3459
 k-point 53 :   0.5000 0.3750 0.2500  plane waves:    3464
 k-point 54 :  -0.3750 0.3750 0.2500  plane waves:    3458
 k-point 55 :  -0.2500 0.3750 0.2500  plane waves:    3444
 k-point 56 :   0.5000 0.5000 0.2500  plane waves:    3481
 k-point 57 :  -0.3750 0.5000 0.2500  plane waves:    3459
 k-point 58 :  -0.2500 0.5000 0.2500  plane waves:    3444
 k-point 59 :  -0.3750-0.3750 0.2500  plane waves:    3454
 k-point 60 :   0.3750 0.3750 0.3750  plane waves:    3453
 k-point 61 :   0.5000 0.3750 0.3750  plane waves:    3464
 k-point 62 :  -0.3750 0.3750 0.3750  plane waves:    3474
 k-point 63 :   0.5000 0.5000 0.3750  plane waves:    3469
 k-point 64 :  -0.3750 0.5000 0.3750  plane waves:    3472
 k-point 65 :   0.5000 0.5000 0.5000  plane waves:    3492

 maximum and minimum number of plane-waves per node :      3497     3440

 maximum number of plane-waves:      3497
 maximum index in each direction: 
   IXMAX=   10   IYMAX=   10   IZMAX=   10
   IXMIN=  -11   IYMIN=  -11   IZMIN=  -11

 WARNING: aliasing errors must be expected set NGX to  44 to avoid them
 WARNING: aliasing errors must be expected set NGY to  44 to avoid them
 WARNING: aliasing errors must be expected set NGZ to  44 to avoid them
 aliasing errors are usually negligible using standard VASP settings
 and one can safely disregard these warnings

 serial   3D FFT for wavefunctions
 parallel 3D FFT for charge:
    minimum data exchange during FFTs selected (reduces bandwidth)


 total amount of memory used by VASP on root node   245534. kBytes
========================================================================

   base      :      30000. kBytes
   nonl-proj :      98840. kBytes
   fftplans  :       2401. kBytes
   grid      :       8568. kBytes
   one-center:        311. kBytes
   wavefun   :     105414. kBytes
 
     INWAV:  cpu time    0.0000: real time    0.0000
 initial charge density was supplied:
 number of electron      94.0000186 magnetization       0.0000000
 keeping initial charge density in first step


--------------------------------------------------------------------------------------------------------


 Maximum index for augmentation-charges         2738 (set IRDMAX)


--------------------------------------------------------------------------------------------------------


 First call to EWALD:  gamma=   0.351
 Maximum number of real-space cells 3x 3x 3
 Maximum number of reciprocal cells 3x 3x 3

 FEWALD executed in parallel
    FEWALD:  cpu time    0.0015: real time    0.0015


----------------------------------------- Iteration    1(   1)  ---------------------------------------


    POTLOK:  cpu time    0.0821: real time    0.0821
    SETDIJ:  cpu time    1.4810: real time    1.4804
atom =   9  type =  3  l = 2
 
 onsite density matrix
 
spin component  1
 
  0.9704  0.0019 -0.0018 -0.0116  0.0018
  0.0019  0.9805 -0.0061 -0.0035 -0.0145
 -0.0018 -0.0061  0.9681  0.0039  0.0051
 -0.0116 -0.0035  0.0039  0.9906 -0.0051
  0.0018 -0.0145  0.0051 -0.0051  0.9820
 
spin component  2
 
  0.1131  0.0104 -0.0100 -0.0588  0.0114
  0.0104  0.1663 -0.0354 -0.0204 -0.0757
 -0.0100 -0.0354  0.1040  0.0211  0.0292
 -0.0588 -0.0204  0.0211  0.2231 -0.0288
  0.0114 -0.0757  0.0292 -0.0288  0.1778
 
 occupancies and eigenvectors
 
  o =  0.0870  v =  0.0000  0.0000  0.0000  0.0000  0.0000 -0.1179  0.6427  0.6783  0.0115  0.3360      0.0000  0.0000  0.0000  0.0000  0.0000  0.0000  0.0000  0.0000  0.0000  0.0000
  o =  0.0870  v =  0.0000  0.0000  0.0000  0.0000  0.0000  0.6316 -0.2502  0.5722  0.0498 -0.4567      0.0000  0.0000  0.0000  0.0000  0.0000  0.0000  0.0000  0.0000  0.0000  0.0000
  o =  0.0879  v =  0.0000  0.0000  0.0000  0.0000  0.0000  0.6632  0.2640 -0.3397  0.4658  0.3977      0.0000  0.0000  0.0000  0.0000  0.0000  0.0000  0.0000  0.0000  0.0000  0.0000
  o =  0.2612  v =  0.0000  0.0000  0.0000  0.0000  0.0000 -0.3814 -0.0775  0.1141  0.8803 -0.2461      0.0000  0.0000  0.0000  0.0000  0.0000  0.0000  0.0000  0.0000  0.0000  0.0000
  o =  0.2612  v =  0.0000  0.0000  0.0000  0.0000  0.0000  0.0436  0.6699 -0.2900 -0.0741 -0.6781      0.0000  0.0000  0.0000  0.0000  0.0000  0.0000  0.0000  0.0000  0.0000  0.0000
  o =  0.9650  v = -0.6638 -0.2638  0.3390 -0.4658 -0.3974  0.0000  0.0000  0.0000  0.0000  0.0000      0.0000  0.0000  0.0000  0.0000  0.0000  0.0000  0.0000  0.0000  0.0000  0.0000
  o =  0.9654  v = -0.2169  0.6644  0.5749 -0.0116  0.4253  0.0000  0.0000  0.0000  0.0000  0.0000      0.0000  0.0000  0.0000  0.0000  0.0000  0.0000  0.0000  0.0000  0.0000  0.0000
  o =  0.9654  v = -0.5938  0.1516 -0.6861 -0.0682  0.3859  0.0000  0.0000  0.0000  0.0000  0.0000      0.0000  0.0000  0.0000  0.0000  0.0000  0.0000  0.0000  0.0000  0.0000  0.0000
  o =  0.9979  v = -0.3939 -0.0324  0.0998  0.8750 -0.2613  0.0000  0.0000  0.0000  0.0000  0.0000      0.0000  0.0000  0.0000  0.0000  0.0000  0.0000  0.0000  0.0000  0.0000  0.0000
  o =  0.9979  v =  0.0679  0.6818 -0.2718 -0.1122 -0.6664  0.0000  0.0000  0.0000  0.0000  0.0000      0.0000  0.0000  0.0000  0.0000  0.0000  0.0000  0.0000  0.0000  0.0000  0.0000
atom =  10  type =  3  l = 2
 
 onsite density matrix
 
spin component  1
 
  0.1729 -0.0138  0.0211 -0.0804 -0.0206
 -0.0138  0.2261  0.0363  0.0154 -0.0559
  0.0211  0.0363  0.1040 -0.0196 -0.0226
 -0.0804  0.0154 -0.0196  0.1633  0.0188
 -0.0206 -0.0559 -0.0226  0.0188  0.1180
 
spin component  2
 
  0.9809 -0.0024  0.0036 -0.0153 -0.0038
 -0.0024  0.9910  0.0065  0.0028 -0.0111
  0.0036  0.0065  0.9681 -0.0032 -0.0040
 -0.0153  0.0028 -0.0032  0.9801  0.0033
 -0.0038 -0.0111 -0.0040  0.0033  0.9715
 
 occupancies and eigenvectors
 
  o =  0.0870  v =  0.1720 -0.2586 -0.3453  0.3460 -0.8152  0.0000  0.0000  0.0000  0.0000  0.0000      0.0000  0.0000  0.0000  0.0000  0.0000  0.0000  0.0000  0.0000  0.0000  0.0000
  o =  0.0870  v = -0.1989  0.2552 -0.8174 -0.4761  0.0213  0.0000  0.0000  0.0000  0.0000  0.0000      0.0000  0.0000  0.0000  0.0000  0.0000  0.0000  0.0000  0.0000  0.0000  0.0000
  o =  0.0879  v =  0.6633  0.2640 -0.3398  0.4656  0.3977  0.0000  0.0000  0.0000  0.0000  0.0000      0.0000  0.0000  0.0000  0.0000  0.0000  0.0000  0.0000  0.0000  0.0000  0.0000
  o =  0.2612  v = -0.6946  0.2296 -0.1389  0.6570  0.1182  0.0000  0.0000  0.0000  0.0000  0.0000      0.0000  0.0000  0.0000  0.0000  0.0000  0.0000  0.0000  0.0000  0.0000  0.0000
  o =  0.2612  v =  0.0922  0.8635  0.2790 -0.0727 -0.4035  0.0000  0.0000  0.0000  0.0000  0.0000      0.0000  0.0000  0.0000  0.0000  0.0000  0.0000  0.0000  0.0000  0.0000  0.0000
  o =  0.9650  v =  0.0000  0.0000  0.0000  0.0000  0.0000 -0.6637 -0.2634  0.3382 -0.4666 -0.3974      0.0000  0.0000  0.0000  0.0000  0.0000  0.0000  0.0000  0.0000  0.0000  0.0000
  o =  0.9654  v =  0.0000  0.0000  0.0000  0.0000  0.0000  0.2350 -0.3455 -0.0773  0.4657 -0.7762      0.0000  0.0000  0.0000  0.0000  0.0000  0.0000  0.0000  0.0000  0.0000  0.0000
  o =  0.9654  v =  0.0000  0.0000  0.0000  0.0000  0.0000 -0.1493  0.1520 -0.8921 -0.3307 -0.2224      0.0000  0.0000  0.0000  0.0000  0.0000  0.0000  0.0000  0.0000  0.0000  0.0000
  o =  0.9979  v =  0.0000  0.0000  0.0000  0.0000  0.0000 -0.5523  0.6155  0.0216  0.5502 -0.1132      0.0000  0.0000  0.0000  0.0000  0.0000  0.0000  0.0000  0.0000  0.0000  0.0000
  o =  0.9979  v =  0.0000  0.0000  0.0000  0.0000  0.0000  0.4205  0.6397  0.2887 -0.3915 -0.4211      0.0000  0.0000  0.0000  0.0000  0.0000  0.0000  0.0000  0.0000  0.0000  0.0000
     EDDAV:  cpu time   13.3337: real time   13.3463
 BZINTS: Fermi energy: 32.958047; 94.000000 electrons
         Band energy: 496.475672;  BLOECHL correction: -0.616313
       DOS:  cpu time    0.0574: real time    0.0574
    --------------------------------------------
      LOOP:  cpu time   14.9573: real time   14.9737

 eigenvalue-minimisations  : 14856
 total energy-change (2. order) : 0.1357037E+04  (-0.4992261E+04)
 number of electron      94.0000186 magnetization       0.0000000
 augmentation part       94.0000186 magnetization       0.0000000

 Free energy of the ion-electron system (eV)
  ---------------------------------------------------
  alpha Z        PSCENC =       399.63707861
  Ewald energy   TEWEN  =     -8258.10432269
  -Hartree energ DENC   =     -3003.63063826
  -exchange      EXHF   =         0.00000000
  -V(xc)+E(xc)   XCENC  =       411.17425050
  PAW double counting   =     10751.48959661   -10867.38869961
  entropy T*S    EENTRO =         0.00000000
  eigenvalues    EBANDS =       496.47567211
  atomic energy  EATOM  =     11427.38436067
  Solvation  Ediel_sol  =         0.00000000
  ---------------------------------------------------
  free energy    TOTEN  =      1357.03729793 eV

  energy without entropy =     1357.03729793  energy(sigma->0) =     1357.03729793


--------------------------------------------------------------------------------------------------------




----------------------------------------- Iteration    1(   2)  ---------------------------------------


     EDDAV:  cpu time   13.3269: real time   13.3223
 BZINTS: Fermi energy: 11.202192; 94.000000 electrons
         Band energy:-702.716815;  BLOECHL correction: -0.198779
       DOS:  cpu time    0.0547: real time    0.0547
    --------------------------------------------
      LOOP:  cpu time   13.3831: real time   13.3828

 eigenvalue-minimisations  : 14824
 total energy-change (2. order) :-0.1199192E+04  (-0.1166398E+04)
 number of electron      94.0000186 magnetization       0.0000000
 augmentation part       94.0000186 magnetization       0.0000000

 Free energy of the ion-electron system (eV)
  ---------------------------------------------------
  alpha Z        PSCENC =       399.63707861
  Ewald energy   TEWEN  =     -8258.10432269
  -Hartree energ DENC   =     -3003.63063826
  -exchange      EXHF   =         0.00000000
  -V(xc)+E(xc)   XCENC  =       411.17425050
  PAW double counting   =     10751.48959661   -10867.38869961
  entropy T*S    EENTRO =         0.00000000
  eigenvalues    EBANDS =      -702.71681518
  atomic energy  EATOM  =     11427.38436067
  Solvation  Ediel_sol  =         0.00000000
  ---------------------------------------------------
  free energy    TOTEN  =       157.84481065 eV

  energy without entropy =      157.84481065  energy(sigma->0) =      157.84481065


--------------------------------------------------------------------------------------------------------




----------------------------------------- Iteration    1(   3)  ---------------------------------------


     EDDAV:  cpu time   14.5554: real time   14.5504
 BZINTS: Fermi energy:  7.142703; 94.000000 electrons
         Band energy:-906.761813;  BLOECHL correction:  0.000000
       DOS:  cpu time    0.0232: real time    0.0231
    --------------------------------------------
      LOOP:  cpu time   14.5800: real time   14.5803

 eigenvalue-minimisations  : 16640
 total energy-change (2. order) :-0.2040450E+03  (-0.1797992E+03)
 number of electron      94.0000186 magnetization       0.0000000
 augmentation part       94.0000186 magnetization       0.0000000

 Free energy of the ion-electron system (eV)
  ---------------------------------------------------
  alpha Z        PSCENC =       399.63707861
  Ewald energy   TEWEN  =     -8258.10432269
  -Hartree energ DENC   =     -3003.63063826
  -exchange      EXHF   =         0.00000000
  -V(xc)+E(xc)   XCENC  =       411.17425050
  PAW double counting   =     10751.48959661   -10867.38869961
  entropy T*S    EENTRO =         0.00000000
  eigenvalues    EBANDS =      -906.76181316
  atomic energy  EATOM  =     11427.38436067
  Solvation  Ediel_sol  =         0.00000000
  ---------------------------------------------------
  free energy    TOTEN  =       -46.20018733 eV

  energy without entropy =      -46.20018733  energy(sigma->0) =      -46.20018733


--------------------------------------------------------------------------------------------------------




----------------------------------------- Iteration    1(   4)  ---------------------------------------


     EDDAV:  cpu time   13.9599: real time   13.9580
 BZINTS: Fermi energy:  6.005573; 94.000000 electrons
         Band energy:-922.646364;  BLOECHL correction:  0.000000
       DOS:  cpu time    0.0130: real time    0.0138
    --------------------------------------------
      LOOP:  cpu time   13.9752: real time   13.9785

 eigenvalue-minimisations  : 15720
 total energy-change (2. order) :-0.1588455E+02  (-0.1564026E+02)
 number of electron      94.0000186 magnetization       0.0000000
 augmentation part       94.0000186 magnetization       0.0000000

 Free energy of the ion-electron system (eV)
  ---------------------------------------------------
  alpha Z        PSCENC =       399.63707861
  Ewald energy   TEWEN  =     -8258.10432269
  -Hartree energ DENC   =     -3003.63063826
  -exchange      EXHF   =         0.00000000
  -V(xc)+E(xc)   XCENC  =       411.17425050
  PAW double counting   =     10751.48959661   -10867.38869961
  entropy T*S    EENTRO =         0.00000000
  eigenvalues    EBANDS =      -922.64636422
  atomic energy  EATOM  =     11427.38436067
  Solvation  Ediel_sol  =         0.00000000
  ---------------------------------------------------
  free energy    TOTEN  =       -62.08473839 eV

  energy without entropy =      -62.08473839  energy(sigma->0) =      -62.08473839


--------------------------------------------------------------------------------------------------------




----------------------------------------- Iteration    1(   5)  ---------------------------------------


     EDDAV:  cpu time   18.2177: real time   18.2113
 BZINTS: Fermi energy:  5.939391; 94.000000 electrons
         Band energy:-923.520806;  BLOECHL correction:  0.000000
       DOS:  cpu time    0.0123: real time    0.0123
    --------------------------------------------
      LOOP:  cpu time   18.2315: real time   18.2301

 eigenvalue-minimisations  : 22304
 total energy-change (2. order) :-0.8744422E+00  (-0.8718284E+00)
 number of electron      94.0000186 magnetization       0.0000000
 augmentation part       94.0000186 magnetization       0.0000000

 Free energy of the ion-electron system (eV)
  ---------------------------------------------------
  alpha Z        PSCENC =       399.63707861
  Ewald energy   TEWEN  =     -8258.10432269
  -Hartree energ DENC   =     -3003.63063826
  -exchange      EXHF   =         0.00000000
  -V(xc)+E(xc)   XCENC  =       411.17425050
  PAW double counting   =     10751.48959661   -10867.38869961
  entropy T*S    EENTRO =         0.00000000
  eigenvalues    EBANDS =      -923.52080646
  atomic energy  EATOM  =     11427.38436067
  Solvation  Ediel_sol  =         0.00000000
  ---------------------------------------------------
  free energy    TOTEN  =       -62.95918064 eV

  energy without entropy =      -62.95918064  energy(sigma->0) =      -62.95918064


--------------------------------------------------------------------------------------------------------




----------------------------------------- Iteration    1(   6)  ---------------------------------------


     EDDAV:  cpu time   15.0122: real time   15.0081
 BZINTS: Fermi energy:  5.944055; 94.000000 electrons
         Band energy:-923.530968;  BLOECHL correction:  0.000000
       DOS:  cpu time    0.0123: real time    0.0123
    --------------------------------------------
      LOOP:  cpu time   15.0263: real time   15.0287

 eigenvalue-minimisations  : 17528
 total energy-change (2. order) :-0.1016159E-01  (-0.1015731E-01)
 number of electron      94.0000186 magnetization       0.0000000
 augmentation part       94.0000186 magnetization       0.0000000

 Free energy of the ion-electron system (eV)
  ---------------------------------------------------
  alpha Z        PSCENC =       399.63707861
  Ewald energy   TEWEN  =     -8258.10432269
  -Hartree energ DENC   =     -3003.63063826
  -exchange      EXHF   =         0.00000000
  -V(xc)+E(xc)   XCENC  =       411.17425050
  PAW double counting   =     10751.48959661   -10867.38869961
  entropy T*S    EENTRO =         0.00000000
  eigenvalues    EBANDS =      -923.53096805
  atomic energy  EATOM  =     11427.38436067
  Solvation  Ediel_sol  =         0.00000000
  ---------------------------------------------------
  free energy    TOTEN  =       -62.96934223 eV

  energy without entropy =      -62.96934223  energy(sigma->0) =      -62.96934223


--------------------------------------------------------------------------------------------------------




----------------------------------------- Iteration    1(   7)  ---------------------------------------


     EDDAV:  cpu time   18.4088: real time   18.4029
 BZINTS: Fermi energy:  5.933222; 94.000000 electrons
         Band energy:-923.531380;  BLOECHL correction:  0.000000
       DOS:  cpu time    0.0123: real time    0.0123
    --------------------------------------------
      LOOP:  cpu time   18.4242: real time   18.4224

 eigenvalue-minimisations  : 22632
 total energy-change (2. order) :-0.4123414E-03  (-0.4121698E-03)
 number of electron      94.0000186 magnetization       0.0000000
 augmentation part       94.0000186 magnetization       0.0000000

 Free energy of the ion-electron system (eV)
  ---------------------------------------------------
  alpha Z        PSCENC =       399.63707861
  Ewald energy   TEWEN  =     -8258.10432269
  -Hartree energ DENC   =     -3003.63063826
  -exchange      EXHF   =         0.00000000
  -V(xc)+E(xc)   XCENC  =       411.17425050
  PAW double counting   =     10751.48959661   -10867.38869961
  entropy T*S    EENTRO =         0.00000000
  eigenvalues    EBANDS =      -923.53138039
  atomic energy  EATOM  =     11427.38436067
  Solvation  Ediel_sol  =         0.00000000
  ---------------------------------------------------
  free energy    TOTEN  =       -62.96975457 eV

  energy without entropy =      -62.96975457  energy(sigma->0) =      -62.96975457


--------------------------------------------------------------------------------------------------------




----------------------------------------- Iteration    1(   8)  ---------------------------------------


     EDDAV:  cpu time   15.3152: real time   15.3114
 BZINTS: Fermi energy:  5.925313; 94.000000 electrons
         Band energy:-923.531388;  BLOECHL correction:  0.000000
       DOS:  cpu time    0.0123: real time    0.0123
    --------------------------------------------
      LOOP:  cpu time   15.3297: real time   15.3311

 eigenvalue-minimisations  : 18000
 total energy-change (2. order) :-0.7577741E-05  (-0.7577011E-05)
 number of electron      94.0000186 magnetization       0.0000000
 augmentation part       94.0000186 magnetization       0.0000000

 Free energy of the ion-electron system (eV)
  ---------------------------------------------------
  alpha Z        PSCENC =       399.63707861
  Ewald energy   TEWEN  =     -8258.10432269
  -Hartree energ DENC   =     -3003.63063826
  -exchange      EXHF   =         0.00000000
  -V(xc)+E(xc)   XCENC  =       411.17425050
  PAW double counting   =     10751.48959661   -10867.38869961
  entropy T*S    EENTRO =         0.00000000
  eigenvalues    EBANDS =      -923.53138797
  atomic energy  EATOM  =     11427.38436067
  Solvation  Ediel_sol  =         0.00000000
  ---------------------------------------------------
  free energy    TOTEN  =       -62.96976214 eV

  energy without entropy =      -62.96976214  energy(sigma->0) =      -62.96976214


--------------------------------------------------------------------------------------------------------




----------------------------------------- Iteration    1(   9)  ---------------------------------------


     EDDAV:  cpu time   16.7961: real time   16.7978
 BZINTS: Fermi energy:  5.926949; 94.000000 electrons
         Band energy:-923.531388;  BLOECHL correction:  0.000000
       DOS:  cpu time    0.0109: real time    0.0109
    --------------------------------------------
      LOOP:  cpu time   16.8083: real time   16.8159

 eigenvalue-minimisations  : 20296
 total energy-change (2. order) :-0.3437526E-06  (-0.3437181E-06)
 number of electron      94.0000186 magnetization       0.0000000
 augmentation part       94.0000186 magnetization       0.0000000

 Free energy of the ion-electron system (eV)
  ---------------------------------------------------
  alpha Z        PSCENC =       399.63707861
  Ewald energy   TEWEN  =     -8258.10432269
  -Hartree energ DENC   =     -3003.63063826
  -exchange      EXHF   =         0.00000000
  -V(xc)+E(xc)   XCENC  =       411.17425050
  PAW double counting   =     10751.48959661   -10867.38869961
  entropy T*S    EENTRO =         0.00000000
  eigenvalues    EBANDS =      -923.53138831
  atomic energy  EATOM  =     11427.38436067
  Solvation  Ediel_sol  =         0.00000000
  ---------------------------------------------------
  free energy    TOTEN  =       -62.96976249 eV

  energy without entropy =      -62.96976249  energy(sigma->0) =      -62.96976249


--------------------------------------------------------------------------------------------------------




----------------------------------------- Iteration    1(  10)  ---------------------------------------


     EDDAV:  cpu time   10.4285: real time   10.4257
 BZINTS: Fermi energy:  5.946992; 94.000000 electrons
         Band energy:-923.531388;  BLOECHL correction:  0.000000
       DOS:  cpu time    0.0123: real time    0.0123
    --------------------------------------------
      LOOP:  cpu time   10.4430: real time   10.4453

 eigenvalue-minimisations  : 10240
 total energy-change (2. order) :-0.1403714E-07  (-0.1402275E-07)
 number of electron      94.0000186 magnetization       0.0000000
 augmentation part       94.0000186 magnetization       0.0000000

 Free energy of the ion-electron system (eV)
  ---------------------------------------------------
  alpha Z        PSCENC =       399.63707861
  Ewald energy   TEWEN  =     -8258.10432269
  -Hartree energ DENC   =     -3003.63063826
  -exchange      EXHF   =         0.00000000
  -V(xc)+E(xc)   XCENC  =       411.17425050
  PAW double counting   =     10751.48959661   -10867.38869961
  entropy T*S    EENTRO =         0.00000000
  eigenvalues    EBANDS =      -923.53138833
  atomic energy  EATOM  =     11427.38436067
  Solvation  Ediel_sol  =         0.00000000
  ---------------------------------------------------
  free energy    TOTEN  =       -62.96976250 eV

  energy without entropy =      -62.96976250  energy(sigma->0) =      -62.96976250


--------------------------------------------------------------------------------------------------------




 average (electrostatic) potential at core
  the test charge radii are     1.0856  0.7215  0.9500
  (the norm of the test charge is              1.0000)
       1-104.2312       2-104.2307       3 -68.1262       4 -68.1258       5 -68.1265
       6 -68.1242       7 -68.1236       8 -68.1245       9 -79.0337      10 -79.0290
 
 
 
 E-fermi :   5.9470     XC(G=0): -11.2745     alpha+bet :-12.6767


 spin component 1

 k-point     1 :       0.0000    0.0000    0.0000
  band No.  band energies     occupation 
      1     -50.8713      1.00000
      2     -50.8097      1.00000
      3     -50.8097      1.00000
      4     -46.0873      1.00000
      5     -46.0420      1.00000
      6     -46.0420      1.00000
      7     -16.1835      1.00000
      8     -16.1835      1.00000
      9     -16.1066      1.00000
     10     -16.1066      1.00000
     11     -16.1033      1.00000
     12     -16.0668      1.00000
     13     -16.0668      1.00000
     14     -16.0450      1.00000
     15     -16.0251      1.00000
     16     -16.0251      1.00000
     17     -12.4714      1.00000
     18     -10.8779      1.00000
     19     -10.7776      1.00000
     20     -10.7772      1.00000
     21     -10.4930      1.00000
     22     -10.4926      1.00000
     23      -3.8267      1.00000
     24      -2.2934      1.00000
     25      -0.5680      1.00000
     26      -0.5680      1.00000
     27      -0.3858      1.00000
     28      -0.3857      1.00000
     29      -0.1706      1.00000
     30       0.2102      1.00000
     31       1.2949      1.00000
     32       1.2950      1.00000
     33       1.5077      1.00000
     34       2.0244      1.00000
     35       2.0245      1.00000
     36       2.3972      1.00000
     37       3.8218      1.00000
     38       3.8220      1.00000
     39       4.5853      1.00000
     40       4.5856      1.00000
     41       4.5933      1.00000
     42       4.9724      1.00000
     43       4.9725      1.00000
     44       5.1784      1.00000
     45       5.1785      1.00000
     46       5.1986      1.00000
     47       5.4557      1.00000
     48       8.2714      0.00000
     49       8.2714      0.00000
     50       8.2939      0.00000
     51       9.3861      0.00000
     52       9.3861      0.00000
     53      11.2028      0.00000
     54      11.2028      0.00000
     55      11.7546      0.00000
     56      12.0885      0.00000

 k-point     2 :       0.1250   -0.0000   -0.0000
  band No.  band energies     occupation 
      1     -50.8713      1.00000
      2     -50.8097      1.00000
      3     -50.8097      1.00000
      4     -46.0873      1.00000
      5     -46.0420      1.00000
      6     -46.0420      1.00000
      7     -16.1790      1.00000
      8     -16.1789      1.00000
      9     -16.1055      1.00000
     10     -16.1053      1.00000
     11     -16.1015      1.00000
     12     -16.0689      1.00000
     13     -16.0680      1.00000
     14     -16.0462      1.00000
     15     -16.0288      1.00000
     16     -16.0283      1.00000
     17     -12.4176      1.00000
     18     -10.9567      1.00000
     19     -10.7794      1.00000
     20     -10.7464      1.00000
     21     -10.5207      1.00000
     22     -10.5008      1.00000
     23      -3.8211      1.00000
     24      -2.4336      1.00000
     25      -0.5570      1.00000
     26      -0.5264      1.00000
     27      -0.3951      1.00000
     28      -0.3812      1.00000
     29      -0.1315      1.00000
     30       0.2980      1.00000
     31       1.3416      1.00000
     32       1.3952      1.00000
     33       1.4852      1.00000
     34       1.9817      1.00000
     35       2.2440      1.00000
     36       2.6156      1.00000
     37       3.7389      1.00000
     38       3.7933      1.00000
     39       4.2754      1.00000
     40       4.5545      1.00000
     41       4.5810      1.00000
     42       4.7355      1.00000
     43       4.8707      1.00000
     44       5.1428      1.00000
     45       5.2427      1.00000
     46       5.4170      1.00000
     47       5.5872      1.00000
     48       8.2642      0.00000
     49       8.2823      0.00000
     50       8.3313      0.00000
     51       9.3187      0.00000
     52       9.3419      0.00000
     53      10.9184      0.00000
     54      11.0384      0.00000
     55      11.7666      0.00000
     56      12.0045      0.00000

 k-point     3 :       0.2500   -0.0000   -0.0000
  band No.  band energies     occupation 
      1     -50.8713      1.00000
      2     -50.8097      1.00000
      3     -50.8097      1.00000
      4     -46.0873      1.00000
      5     -46.0420      1.00000
      6     -46.0420      1.00000
      7     -16.1664      1.00000
      8     -16.1661      1.00000
      9     -16.1055      1.00000
     10     -16.1032      1.00000
     11     -16.0952      1.00000
     12     -16.0743      1.00000
     13     -16.0703      1.00000
     14     -16.0495      1.00000
     15     -16.0388      1.00000
     16     -16.0367      1.00000
     17     -12.2615      1.00000
     18     -11.1434      1.00000
     19     -10.7811      1.00000
     20     -10.7067      1.00000
     21     -10.5822      1.00000
     22     -10.5254      1.00000
     23      -3.7795      1.00000
     24      -2.7602      1.00000
     25      -0.5343      1.00000
     26      -0.4697      1.00000
     27      -0.3726      1.00000
     28      -0.3627      1.00000
     29      -0.0564      1.00000
     30       0.5224      1.00000
     31       1.3670      1.00000
     32       1.5790      1.00000
     33       1.7339      1.00000
     34       2.0074      1.00000
     35       2.5408      1.00000
     36       3.1101      1.00000
     37       3.4916      1.00000
     38       3.6765      1.00000
     39       3.8326      1.00000
     40       4.3294      1.00000
     41       4.4839      1.00000
     42       4.5696      1.00000
     43       4.7943      1.00000
     44       5.1264      1.00000
     45       5.3503      1.00000
     46       5.4998      1.00000
     47       5.7452      1.00000
     48       8.2581      0.00000
     49       8.3023      0.00000
     50       8.4011      0.00000
     51       9.1856      0.00000
     52       9.2180      0.00000
     53      10.3883      0.00000
     54      10.6724      0.00000
     55      11.5792      0.00000
     56      11.6428      0.00000

 k-point     4 :       0.3750   -0.0000    0.0000
  band No.  band energies     occupation 
      1     -50.8713      1.00000
      2     -50.8097      1.00000
      3     -50.8097      1.00000
      4     -46.0873      1.00000
      5     -46.0420      1.00000
      6     -46.0420      1.00000
      7     -16.1484      1.00000
      8     -16.1480      1.00000
      9     -16.1116      1.00000
     10     -16.1078      1.00000
     11     -16.0853      1.00000
     12     -16.0772      1.00000
     13     -16.0703      1.00000
     14     -16.0550      1.00000
     15     -16.0509      1.00000
     16     -16.0471      1.00000
     17     -12.0199      1.00000
     18     -11.4115      1.00000
     19     -10.7765      1.00000
     20     -10.6761      1.00000
     21     -10.6353      1.00000
     22     -10.5595      1.00000
     23      -3.6592      1.00000
     24      -3.1250      1.00000
     25      -0.5218      1.00000
     26      -0.4830      1.00000
     27      -0.3292      1.00000
     28      -0.2885      1.00000
     29       0.0104      1.00000
     30       0.8354      1.00000
     31       1.4478      1.00000
     32       1.6841      1.00000
     33       1.9491      1.00000
     34       2.2377      1.00000
     35       2.6667      1.00000
     36       2.9922      1.00000
     37       3.3240      1.00000
     38       3.7184      1.00000
     39       3.7792      1.00000
     40       4.2044      1.00000
     41       4.4283      1.00000
     42       4.5905      1.00000
     43       4.6891      1.00000
     44       5.0801      1.00000
     45       5.3574      1.00000
     46       5.5017      1.00000
     47       5.7766      1.00000
     48       8.2350      0.00000
     49       8.3177      0.00000
     50       8.4617      0.00000
     51       9.0471      0.00000
     52       9.1105      0.00000
     53       9.9627      0.00000
     54      10.2476      0.00000
     55      11.2540      0.00000
     56      11.3239      0.00000

 k-point     5 :       0.5000   -0.0000   -0.0000
  band No.  band energies     occupation 
      1     -50.8713      1.00000
      2     -50.8097      1.00000
      3     -50.8097      1.00000
      4     -46.0873      1.00000
      5     -46.0420      1.00000
      6     -46.0420      1.00000
      7     -16.1341      1.00000
      8     -16.1332      1.00000
      9     -16.1206      1.00000
     10     -16.1194      1.00000
     11     -16.0776      1.00000
     12     -16.0767      1.00000
     13     -16.0659      1.00000
     14     -16.0647      1.00000
     15     -16.0544      1.00000
     16     -16.0533      1.00000
     17     -11.7431      1.00000
     18     -11.6998      1.00000
     19     -10.7707      1.00000
     20     -10.6814      1.00000
     21     -10.6332      1.00000
     22     -10.5834      1.00000
     23      -3.4454      1.00000
     24      -3.4311      1.00000
     25      -0.5168      1.00000
     26      -0.4991      1.00000
     27      -0.3007      1.00000
     28      -0.2603      1.00000
     29       0.0375      1.00000
     30       1.1125      1.00000
     31       1.3281      1.00000
     32       1.7409      1.00000
     33       2.0730      1.00000
     34       2.4194      1.00000
     35       2.6232      1.00000
     36       2.8500      1.00000
     37       3.0331      1.00000
     38       3.7343      1.00000
     39       4.1042      1.00000
     40       4.2536      1.00000
     41       4.3565      1.00000
     42       4.5715      1.00000
     43       4.6674      1.00000
     44       5.1379      1.00000
     45       5.2136      1.00000
     46       5.5155      1.00000
     47       5.7545      1.00000
     48       8.2042      0.00000
     49       8.3324      0.00000
     50       8.4847      0.00000
     51       8.9892      0.00000
     52       9.0672      0.00000
     53       9.8512      0.00000
     54       9.9997      0.00000
     55      11.1371      0.00000
     56      11.2059      0.00000

 k-point     6 :       0.1250    0.1250   -0.0000
  band No.  band energies     occupation 
      1     -50.8713      1.00000
      2     -50.8097      1.00000
      3     -50.8097      1.00000
      4     -46.0873      1.00000
      5     -46.0420      1.00000
      6     -46.0420      1.00000
      7     -16.1827      1.00000
      8     -16.1724      1.00000
      9     -16.1078      1.00000
     10     -16.1021      1.00000
     11     -16.1013      1.00000
     12     -16.0702      1.00000
     13     -16.0676      1.00000
     14     -16.0467      1.00000
     15     -16.0335      1.00000
     16     -16.0255      1.00000
     17     -12.4010      1.00000
     18     -10.9585      1.00000
     19     -10.8032      1.00000
     20     -10.7389      1.00000
     21     -10.5341      1.00000
     22     -10.4976      1.00000
     23      -3.8201      1.00000
     24      -2.4664      1.00000
     25      -0.5627      1.00000
     26      -0.5086      1.00000
     27      -0.4156      1.00000
     28      -0.3689      1.00000
     29      -0.1317      1.00000
     30       0.3453      1.00000
     31       1.3503      1.00000
     32       1.4074      1.00000
     33       1.5168      1.00000
     34       2.0338      1.00000
     35       2.2593      1.00000
     36       2.6433      1.00000
     37       3.7404      1.00000
     38       3.7825      1.00000
     39       4.2594      1.00000
     40       4.4270      1.00000
     41       4.6280      1.00000
     42       4.7577      1.00000
     43       4.9050      1.00000
     44       5.0852      1.00000
     45       5.1330      1.00000
     46       5.4128      1.00000
     47       5.6705      1.00000
     48       8.2694      0.00000
     49       8.2883      0.00000
     50       8.3328      0.00000
     51       9.2426      0.00000
     52       9.3911      0.00000
     53      10.8267      0.00000
     54      11.1094      0.00000
     55      11.6777      0.00000
     56      11.8052      0.00000

 k-point     7 :       0.2500    0.1250    0.0000
  band No.  band energies     occupation 
      1     -50.8713      1.00000
      2     -50.8097      1.00000
      3     -50.8097      1.00000
      4     -46.0873      1.00000
      5     -46.0420      1.00000
      6     -46.0420      1.00000
      7     -16.1776      1.00000
      8     -16.1586      1.00000
      9     -16.1089      1.00000
     10     -16.1006      1.00000
     11     -16.0952      1.00000
     12     -16.0742      1.00000
     13     -16.0692      1.00000
     14     -16.0492      1.00000
     15     -16.0431      1.00000
     16     -16.0291      1.00000
     17     -12.2819      1.00000
     18     -11.0788      1.00000
     19     -10.8170      1.00000
     20     -10.7218      1.00000
     21     -10.5854      1.00000
     22     -10.5123      1.00000
     23      -3.7982      1.00000
     24      -2.7071      1.00000
     25      -0.5547      1.00000
     26      -0.4726      1.00000
     27      -0.3905      1.00000
     28      -0.3408      1.00000
     29      -0.0706      1.00000
     30       0.5021      1.00000
     31       1.3351      1.00000
     32       1.5136      1.00000
     33       1.7885      1.00000
     34       2.1157      1.00000
     35       2.4669      1.00000
     36       3.0023      1.00000
     37       3.5818      1.00000
     38       3.6980      1.00000
     39       3.9532      1.00000
[...]
     36       3.0625      1.00000
     37       3.1590      1.00000
     38       3.5651      1.00000
     39       3.7304      1.00000
     40       4.0418      1.00000
     41       4.1402      1.00000
     42       4.3014      1.00000
     43       4.3948      1.00000
     44       4.9255      1.00000
     45       5.4117      1.00000
     46       5.7674      1.00000
     47       5.8662      1.00000
     48       8.2193      0.00000
     49       8.3635      0.00000
     50       8.4012      0.00000
     51       8.9137      0.00000
     52       9.1157      0.00000
     53       9.7591      0.00000
     54       9.9537      0.00000
     55      10.9531      0.00000
     56      11.0104      0.00000

 k-point    65 :       0.5000    0.5000    0.5000
  band No.  band energies     occupation 
      1     -50.8664      1.00000
      2     -50.8051      1.00000
      3     -50.8050      1.00000
      4     -46.0922      1.00000
      5     -46.0467      1.00000
      6     -46.0467      1.00000
      7     -16.1267      1.00000
      8     -16.1266      1.00000
      9     -16.1239      1.00000
     10     -16.1239      1.00000
     11     -16.0752      1.00000
     12     -16.0722      1.00000
     13     -16.0630      1.00000
     14     -16.0630      1.00000
     15     -16.0617      1.00000
     16     -16.0617      1.00000
     17     -11.7817      1.00000
     18     -11.7037      1.00000
     19     -10.7240      1.00000
     20     -10.7236      1.00000
     21     -10.5948      1.00000
     22     -10.5945      1.00000
     23      -3.4209      1.00000
     24      -3.3699      1.00000
     25      -0.5288      1.00000
     26      -0.5287      1.00000
     27      -0.2313      1.00000
     28      -0.2313      1.00000
     29      -0.1372      1.00000
     30       1.3093      1.00000
     31       1.7177      1.00000
     32       1.7178      1.00000
     33       1.7630      1.00000
     34       2.5318      1.00000
     35       2.5319      1.00000
     36       3.1570      1.00000
     37       3.1571      1.00000
     38       3.5430      1.00000
     39       3.7055      1.00000
     40       4.0580      1.00000
     41       4.0582      1.00000
     42       4.4187      1.00000
     43       4.4189      1.00000
     44       5.5066      1.00000
     45       5.5553      1.00000
     46       5.5554      1.00000
     47       5.8535      1.00000
     48       8.1568      0.00000
     49       8.3627      0.00000
     50       8.3628      0.00000
     51       9.0939      0.00000
     52       9.0940      0.00000
     53       9.5742      0.00000
     54       9.8268      0.00000
     55      11.4689      0.00000
     56      11.4883      0.00000


--------------------------------------------------------------------------------------------------------


 soft charge-density along one line, spin component           1
         0         1         2         3         4         5         6         7         8         9
 total charge-density along one line
 
 soft charge-density along one line, spin component           2
         0         1         2         3         4         5         6         7         8         9
 total charge-density along one line
 
 pseudopotential strength for first ion, spin component:           1
-17.334   0.002  -0.006  -0.000  -0.010   3.702  -0.001   0.003
  0.002 -17.347   0.013   0.014  -0.001  -0.001   3.709  -0.007
 -0.006   0.013 -17.344   0.005  -0.011   0.003  -0.007   3.707
 -0.000   0.014   0.005 -17.348   0.010   0.000  -0.007  -0.003
 -0.010  -0.001  -0.011   0.010 -17.339   0.005   0.001   0.006
  3.702  -0.001   0.003   0.000   0.005   5.921   0.001  -0.002
 -0.001   3.709  -0.007  -0.007   0.001   0.001   5.918   0.001
  0.003  -0.007   3.707  -0.003   0.006  -0.002   0.001   5.919
  0.000  -0.007  -0.003   3.709  -0.005   0.001   0.002   0.001
  0.005   0.001   0.006  -0.005   3.705  -0.001  -0.001  -0.002
  0.003   0.001  -0.002   0.002   0.002  -0.002  -0.001   0.001
 -0.006  -0.002   0.003  -0.004  -0.003   0.004   0.001  -0.002
  0.013   0.005  -0.005   0.000  -0.008  -0.002  -0.001   0.001
  0.000   0.007   0.007   0.014   0.000  -0.000  -0.001  -0.002
  0.008   0.000  -0.008   0.005   0.014  -0.001  -0.000   0.001
  0.022   0.008  -0.008   0.001  -0.013  -0.001  -0.000   0.001
  0.001   0.012   0.011   0.023   0.000  -0.000  -0.000  -0.002
  0.013   0.001  -0.013   0.009   0.023  -0.000  -0.000   0.001
 pseudopotential strength for first ion, spin component:           2
-17.334   0.002  -0.006  -0.000  -0.010   3.702  -0.001   0.003
  0.002 -17.347   0.013   0.013  -0.001  -0.001   3.708  -0.006
 -0.006   0.013 -17.344   0.005  -0.011   0.003  -0.006   3.707
 -0.000   0.013   0.005 -17.348   0.009   0.000  -0.007  -0.002
 -0.010  -0.001  -0.011   0.009 -17.340   0.005   0.000   0.005
  3.702  -0.001   0.003   0.000   0.005   5.921   0.001  -0.002
 -0.001   3.708  -0.006  -0.007   0.000   0.001   5.918   0.001
  0.003  -0.006   3.707  -0.002   0.005  -0.002   0.001   5.919
  0.000  -0.007  -0.002   3.709  -0.005   0.001   0.002   0.001
  0.005   0.000   0.005  -0.005   3.705  -0.001  -0.001  -0.002
  0.003   0.001  -0.002   0.002   0.002  -0.002  -0.001   0.001
 -0.006  -0.002   0.003  -0.004  -0.003   0.003   0.001  -0.002
  0.013   0.005  -0.005   0.000  -0.008  -0.002  -0.001   0.001
  0.000   0.007   0.006   0.014   0.000  -0.000  -0.001  -0.002
  0.008   0.000  -0.008   0.005   0.014  -0.001  -0.000   0.001
  0.022   0.008  -0.008   0.001  -0.013  -0.002  -0.001   0.001
  0.001   0.012   0.011   0.023   0.000  -0.000  -0.001  -0.002
  0.013   0.001  -0.013   0.009   0.023  -0.001  -0.000   0.001
 total augmentation occupancy for first ion, spin component:           1
  2.000   0.000   0.000   0.000   0.000   0.000   0.000   0.000   0.000   0.000   0.000   0.000   0.000   0.000   0.000   0.000
  0.000   2.000   0.000   0.000   0.000   0.000   0.000   0.000   0.000   0.000   0.000   0.000   0.000   0.000   0.000   0.000
  0.000   0.000   2.000   0.000   0.000   0.000   0.000   0.000   0.000   0.000   0.000   0.000   0.000   0.000   0.000   0.000
  0.000   0.000   0.000   2.000   0.000   0.000   0.000   0.000   0.000   0.000   0.000   0.000   0.000   0.000   0.000   0.000
  0.000   0.000   0.000   0.000   2.000   0.000   0.000   0.000   0.000   0.000   0.000   0.000   0.000   0.000   0.000   0.000
  0.000   0.000   0.000   0.000   0.000   0.000   0.000   0.000   0.000   0.000   0.000   0.000   0.000   0.000   0.000   0.000
  0.000   0.000   0.000   0.000   0.000   0.000   0.000   0.000   0.000   0.000   0.000   0.000   0.000   0.000   0.000   0.000
  0.000   0.000   0.000   0.000   0.000   0.000   0.000   0.000   0.000   0.000   0.000   0.000   0.000   0.000   0.000   0.000
  0.000   0.000   0.000   0.000   0.000   0.000   0.000   0.000   0.000   0.000   0.000   0.000   0.000   0.000   0.000   0.000
  0.000   0.000   0.000   0.000   0.000   0.000   0.000   0.000   0.000   0.000   0.000   0.000   0.000   0.000   0.000   0.000
  0.000   0.000   0.000   0.000   0.000   0.000   0.000   0.000   0.000   0.000   2.000   0.000   0.000   0.000   0.000   0.000
  0.000   0.000   0.000   0.000   0.000   0.000   0.000   0.000   0.000   0.000   0.000   0.000   0.000   0.000   0.000   0.000
  0.000   0.000   0.000   0.000   0.000   0.000   0.000   0.000   0.000   0.000   0.000   0.000   1.000   0.000   0.000   0.000
  0.000   0.000   0.000   0.000   0.000   0.000   0.000   0.000   0.000   0.000   0.000   0.000   0.000   1.000   0.000   0.000
  0.000   0.000   0.000   0.000   0.000   0.000   0.000   0.000   0.000   0.000   0.000   0.000   0.000   0.000   1.000   0.000
  0.000   0.000   0.000   0.000   0.000   0.000   0.000   0.000   0.000   0.000   0.000   0.000   0.000   0.000   0.000   0.000
  0.000   0.000   0.000   0.000   0.000   0.000   0.000   0.000   0.000   0.000   0.000   0.000   0.000   0.000   0.000   0.000
  0.000   0.000   0.000   0.000   0.000   0.000   0.000   0.000   0.000   0.000   0.000   0.000   0.000   0.000   0.000   0.000
 total augmentation occupancy for first ion, spin component:           2
  0.000   0.000   0.000   0.000   0.000   0.000   0.000   0.000   0.000   0.000   0.000   0.000   0.000   0.000   0.000   0.000
  0.000   0.000   0.000   0.000   0.000   0.000   0.000   0.000   0.000   0.000   0.000   0.000   0.000   0.000   0.000   0.000
  0.000   0.000   0.000   0.000   0.000   0.000   0.000   0.000   0.000   0.000   0.000   0.000   0.000   0.000   0.000   0.000
  0.000   0.000   0.000   0.000   0.000   0.000   0.000   0.000   0.000   0.000   0.000   0.000   0.000   0.000   0.000   0.000
  0.000   0.000   0.000   0.000   0.000   0.000   0.000   0.000   0.000   0.000   0.000   0.000   0.000   0.000   0.000   0.000
  0.000   0.000   0.000   0.000   0.000   0.000   0.000   0.000   0.000   0.000   0.000   0.000   0.000   0.000   0.000   0.000
  0.000   0.000   0.000   0.000   0.000   0.000   0.000   0.000   0.000   0.000   0.000   0.000   0.000   0.000   0.000   0.000
  0.000   0.000   0.000   0.000   0.000   0.000   0.000   0.000   0.000   0.000   0.000   0.000   0.000   0.000   0.000   0.000
  0.000   0.000   0.000   0.000   0.000   0.000   0.000   0.000   0.000   0.000   0.000   0.000   0.000   0.000   0.000   0.000
  0.000   0.000   0.000   0.000   0.000   0.000   0.000   0.000   0.000   0.000   0.000   0.000   0.000   0.000   0.000   0.000
  0.000   0.000   0.000   0.000   0.000   0.000   0.000   0.000   0.000   0.000   0.000   0.000   0.000   0.000   0.000   0.000
  0.000   0.000   0.000   0.000   0.000   0.000   0.000   0.000   0.000   0.000   0.000   0.000   0.000   0.000   0.000   0.000
  0.000   0.000   0.000   0.000   0.000   0.000   0.000   0.000   0.000   0.000   0.000   0.000   0.000   0.000   0.000   0.000
  0.000   0.000   0.000   0.000   0.000   0.000   0.000   0.000   0.000   0.000   0.000   0.000   0.000   0.000   0.000   0.000
  0.000   0.000   0.000   0.000   0.000   0.000   0.000   0.000   0.000   0.000   0.000   0.000   0.000   0.000   0.000   0.000
  0.000   0.000   0.000   0.000   0.000   0.000   0.000   0.000   0.000   0.000   0.000   0.000   0.000   0.000   0.000   0.000
  0.000   0.000   0.000   0.000   0.000   0.000   0.000   0.000   0.000   0.000   0.000   0.000   0.000   0.000   0.000   0.000
  0.000   0.000   0.000   0.000   0.000   0.000   0.000   0.000   0.000   0.000   0.000   0.000   0.000   0.000   0.000   0.000


------------------------ aborting loop because EDIFF is reached ----------------------------------------


 


 total charge     
 
# of ion     s       p       d       tot
----------------------------------------
  1        1.652   0.840  10.017  12.509
  2        1.652   0.841  10.017  12.510
  3        1.572   3.477   0.000   5.048
  4        1.571   3.416   0.000   4.987
  5        1.572   3.362   0.000   4.935
  6        1.571   3.456   0.000   5.026
  7        1.572   3.361   0.000   4.933
  8        1.572   3.435   0.000   5.007
  9        0.289   6.341   5.655  12.285
 10        0.289   6.341   5.655  12.285
------------------------------------------------
tot       13.310  34.870  31.344  79.524
 


 magnetization (x)
 
# of ion     s       p       d       tot
----------------------------------------
  1        0.001  -0.003   0.001  -0.002
  2       -0.001   0.003  -0.001   0.002
  3        0.001   0.037   0.000   0.039
  4        0.001   0.040   0.000   0.041
  5        0.000   0.049   0.000   0.049
  6       -0.001  -0.046   0.000  -0.047
  7       -0.001  -0.042   0.000  -0.044
  8       -0.001  -0.038   0.000  -0.039
  9        0.014   0.020   4.105   4.138
 10       -0.014  -0.020  -4.105  -4.138
------------------------------------------------
tot       -0.000   0.001   0.000   0.000
 
    CHARGE:  cpu time    0.7289: real time    0.7286
    FORLOC:  cpu time    0.0059: real time    0.0059
    FORNL :  cpu time    6.8074: real time    6.8050
    STRESS:  cpu time    8.1546: real time    8.1520
    FORCOR:  cpu time    0.0859: real time    0.0859
    FORHAR:  cpu time    0.0116: real time    0.0116
    OFIELD:  cpu time    0.0004: real time    0.0004

  FORCE on cell =-STRESS in cart. coord.  units (eV):
  Direction    XX          YY          ZZ          XY          YZ          ZX
  --------------------------------------------------------------------------------------
  Alpha Z   399.63708   399.63708   399.63708
  Ewald   -2772.06924 -2746.13296 -2739.91624   -21.63734    -8.61160   -15.19169
  Hartree   986.24939  1006.28905  1011.09374   -16.72139    -6.65286   -11.73983
  E(xc)    -506.78752  -506.71005  -506.69154    -0.06458    -0.02569    -0.04535
  Local     -53.01684  -100.56383  -111.96606    39.67418    15.78579    27.85497
  n-local     9.76783     8.84845     9.10598     1.76692     0.05076     1.63911
  augment   593.76709   595.15052   595.48317    -1.15552    -0.45926    -0.81117
  Kinetic  1343.47638  1342.94512  1342.76732    -1.25624     0.82237    -4.04299
  Fock        0.00000     0.00000     0.00000     0.00000     0.00000     0.00000
  -------------------------------------------------------------------------------------
  Total       0.00000     0.00044     0.00054    -0.00036    -0.00014    -0.00026
  in kB       0.00002     0.00545     0.00675    -0.00453    -0.00180    -0.00318
  external pressure =        0.00 kB  Pullay stress =        0.00 kB


 VOLUME and BASIS-vectors are now :
 -----------------------------------------------------------------------------
  energy-cutoff  :      520.00
  volume of cell :      128.55
      direct lattice vectors                 reciprocal lattice vectors
     5.705956471  0.000094076  0.000066058     0.175258041 -0.105045435 -0.073760460
     2.933464379  4.894152224  0.000066058    -0.000002515  0.204327982 -0.073760460
     2.933464379  1.661812456  4.603379775    -0.000002515 -0.000001425  0.217233814

  length of vectors
     5.705956472  5.705956472  5.705956472     0.217233814  0.217233814  0.217233814


 FORCES acting on ions
    electron-ion (+dipol)            ewald-force                    non-local-force                 convergence-correction
 -----------------------------------------------------------------------------------------------
   0.192E+03 0.109E+03 0.763E+02   -.201E+03 -.114E+03 -.798E+02   0.887E+01 0.503E+01 0.353E+01   -.311E-02 -.161E-02 -.202E-02
   0.192E+03 0.109E+03 0.762E+02   -.201E+03 -.114E+03 -.798E+02   0.887E+01 0.503E+01 0.353E+01   0.308E-02 -.103E-02 0.907E-03
   -.296E+01 -.583E+02 -.270E+02   0.638E+01 0.619E+02 0.286E+02   -.343E+01 -.354E+01 -.158E+01   -.274E-03 -.606E-03 -.118E-02
   -.516E+02 -.160E+02 0.350E+02   0.563E+02 0.180E+02 -.345E+02   -.479E+01 -.186E+01 -.519E+00   -.291E-02 -.144E-02 -.790E-03
   -.403E+02 0.207E+02 -.457E+02   0.444E+02 -.192E+02 0.485E+02   -.406E+01 -.156E+01 -.279E+01   -.259E-02 -.334E-03 -.233E-02
   -.403E+02 -.359E+02 0.350E+02   0.444E+02 0.391E+02 -.345E+02   -.406E+01 -.315E+01 -.519E+00   -.225E-02 -.575E-03 0.107E-02
   -.291E+01 -.453E+02 -.456E+02   0.635E+01 0.479E+02 0.485E+02   -.343E+01 -.268E+01 -.279E+01   -.154E-03 -.141E-02 -.130E-02
   -.515E+02 0.275E+02 -.271E+02   0.563E+02 -.264E+02 0.286E+02   -.479E+01 -.112E+01 -.158E+01   -.191E-02 -.616E-03 -.167E-02
   -.914E+02 -.518E+02 -.364E+02   0.935E+02 0.530E+02 0.372E+02   -.206E+01 -.117E+01 -.820E+00   -.606E-02 0.756E-02 0.574E-02
   -.914E+02 -.518E+02 -.363E+02   0.935E+02 0.530E+02 0.372E+02   -.206E+01 -.117E+01 -.820E+00   -.106E-01 -.969E-02 -.681E-02
 -----------------------------------------------------------------------------------------------
   0.110E+02 0.625E+01 0.435E+01   0.000E+00 0.284E-13 0.142E-13   -.109E+02 -.620E+01 -.435E+01   -.267E-01 -.975E-02 -.838E-02
 
 
 POSITION                                       TOTAL-FORCE (eV/Angst)
 -----------------------------------------------------------------------------------
      3.23193      1.83090      1.28561        -0.000411     -0.000233     -0.000163
      9.01848      5.10900      3.58741        -0.000411     -0.000233     -0.000163
      6.83707      2.40683      3.74305        -0.000124      0.000392      0.000561
      5.57930      5.09174      3.08127         0.000273      0.000423     -0.000480
      7.23565      3.63432      0.99294         0.000503     -0.000446      0.000178
      4.38272      3.78397      0.77955         0.000503      0.000016     -0.000480
      3.98406      2.72175      3.29449        -0.000124      0.000661      0.000178
      5.49878      1.34912      1.44146         0.000273     -0.000308      0.000561
      5.78643      3.27802      2.30175        -0.000241     -0.000137     -0.000096
     11.57285      6.55604      4.60350        -0.000241     -0.000137     -0.000096
 -----------------------------------------------------------------------------------
    total drift:                               -0.019644      0.037914     -0.012832


--------------------------------------------------------------------------------------------------------



  FREE ENERGIE OF THE ION-ELECTRON SYSTEM (eV)
  ---------------------------------------------------
  free  energy   TOTEN  =       -62.96976250 eV

  energy  without entropy=      -62.96976250  energy(sigma->0) =      -62.96976250
 


--------------------------------------------------------------------------------------------------------


    POTLOK:  cpu time    1.5612: real time    1.5607


--------------------------------------------------------------------------------------------------------


     LOOP+:  cpu time  171.1704: real time  171.3083
    4ORBIT:  cpu time    0.0000: real time    0.0000
 


 total charge     
 
# of ion     s       p       d       tot
----------------------------------------
  1        1.652   0.840  10.017  12.509
  2        1.652   0.841  10.017  12.510
  3        1.572   3.477   0.000   5.048
  4        1.571   3.416   0.000   4.987
  5        1.572   3.362   0.000   4.935
  6        1.571   3.456   0.000   5.026
  7        1.572   3.361   0.000   4.933
  8        1.572   3.435   0.000   5.007
  9        0.289   6.341   5.655  12.285
 10        0.289   6.341   5.655  12.285
------------------------------------------------
tot       13.310  34.870  31.344  79.524
 


 magnetization (x)
 
# of ion     s       p       d       tot
----------------------------------------
  1        0.001  -0.003   0.001  -0.002
  2       -0.001   0.003  -0.001   0.002
  3        0.001   0.037   0.000   0.039
  4        0.001   0.040   0.000   0.041
  5        0.000   0.049   0.000   0.049
  6       -0.001  -0.046   0.000  -0.047
  7       -0.001  -0.042   0.000  -0.044
  8       -0.001  -0.038   0.000  -0.039
  9        0.014   0.020   4.105   4.138
 10       -0.014  -0.020  -4.105  -4.138
------------------------------------------------
tot       -0.000   0.001   0.000   0.000
 
 BZINTS: Fermi energy:  5.946992; 94.000000 electrons
         Band energy:-923.531388;  BLOECHL correction:  0.000000

 total amount of memory used by VASP on root node   245534. kBytes
========================================================================

   base      :      30000. kBytes
   nonl-proj :      98840. kBytes
   fftplans  :       2401. kBytes
   grid      :       8568. kBytes
   one-center:        311. kBytes
   wavefun   :     105414. kBytes
 
  
  
 General timing and accounting informations for this job:
 ========================================================
  
                  Total CPU time used (sec):      180.721
                            User time (sec):      175.639
                          System time (sec):        5.082
                         Elapsed time (sec):      182.947
  
                   Maximum memory used (kb):      260244.
                   Average memory used (kb):           0.
  
                          Minor page faults:        41338
                          Major page faults:           30
                 Voluntary context switches:          698
