   10   10    1    2
  0.1282273E+02  0.5698986E-09  0.5698986E-09  0.5698986E-09  0.5000000E-15
  1.000000000000000E-004
  CAR 
 unknown system                          
     94    120     56
 
  0.5000000E+00  0.0000000E+00  0.0000000E+00  0.8333333E-02
    1      -49.968863    -49.963768   1.000000   1.000000
    2      -49.911443    -49.906659   1.000000   1.000000
    3      -49.911395    -49.906623   1.000000   1.000000
    4      -45.493707    -45.498726   1.000000   1.000000
    5      -45.444991    -45.449785   1.000000   1.000000
    6      -45.444960    -45.449744   1.000000   1.000000
    7      -16.195160    -16.195259   1.000000   1.000000
    8      -16.194106    -16.194080   1.000000   1.000000
    9      -16.181567    -16.181629   1.000000   1.000000
   10      -16.179834    -16.179735   1.000000   1.000000
   11      -16.132586    -16.132556   1.000000   1.000000
   12      -16.131333    -16.131365   1.000000   1.000000
   13      -16.121089    -16.121062   1.000000   1.000000
   14      -16.119624    -16.119674   1.000000   1.000000
   15      -16.109021    -16.109250   1.000000   1.000000
   16      -16.107293    -16.107002   1.000000   1.000000
   17      -11.834858    -11.833627   1.000000   1.000000
   18      -11.773693    -11.774553   1.000000   1.000000
   19      -10.856498    -10.854578   1.000000   1.000000
   20      -10.740114    -10.740920   1.000000   1.000000
   21      -10.713390    -10.713146   1.000000   1.000000
   22      -10.644860    -10.646388   1.000000   1.000000
   23       -3.474532     -3.474500   1.000000   1.000000
   24       -3.464050     -3.463979   1.000000   1.000000
   25        0.613862      0.616152   1.000000   1.000000
   26        0.769102      0.770369   1.000000   1.000000
   27        0.857540      0.859235   1.000000   1.000000
   28        1.138884      1.140653   1.000000   1.000000
   29        1.244185      1.245771   1.000000   1.000000
   30        1.493945      1.494541   1.000000   1.000000
   31        1.784971      1.785654   1.000000   1.000000
   32        1.980923      1.983066   1.000000   1.000000
   33        2.227740      2.228599   1.000000   1.000000
   34        2.661719      2.662625   1.000000   1.000000
   35        2.877167      2.876355   1.000000   1.000000
   36        3.158558      3.160095   1.000000   1.000000
   37        3.471115      3.473025   1.000000   1.000000
   38        3.803830      3.803229   1.000000   1.000000
   39        4.069623      4.070520   1.000000   1.000000
   40        4.222411      4.221941   1.000000   1.000000
   41        4.271606      4.270758   1.000000   1.000000
   42        4.577008      4.577187   1.000000   1.000000
   43        4.596969      4.596819   1.000000   1.000000
   44        5.213185      5.212668   1.000000   1.000000
   45        5.399499      5.400552   1.000000   1.000000
   46        5.850898      5.851896   1.000000   1.000000
   47        6.055206      6.056446   1.000000   1.000000
   48        7.683007      7.679479   0.000000   0.000000
   49        7.753425      7.749807   0.000000   0.000000
   50        7.965155      7.961844   0.000000   0.000000
   51        8.829557      8.826267   0.000000   0.000000
   52        8.939281      8.936050   0.000000   0.000000
   53        9.871147      9.872076   0.000000   0.000000
   54        9.973556      9.972317   0.000000   0.000000
   55       11.125691     11.125601   0.000000   0.000000
   56       11.178639     11.178661   0.000000   0.000000
 
  0.5000000E+00  0.2173913E-01  0.0000000E+00  0.8333333E-02
    1      -49.968863    -49.963768   1.000000   1.000000
    2      -49.911442    -49.906659   1.000000   1.000000
    3      -49.911396    -49.906622   1.000000   1.000000
    4      -45.493707    -45.498726   1.000000   1.000000
    5      -45.444992    -45.449784   1.000000   1.000000
    6      -45.444959    -45.449745   1.000000   1.000000
    7      -16.196385    -16.195809   1.000000   1.000000
    8      -16.193464    -16.194379   1.000000   1.000000
    9      -16.182237    -16.181301   1.000000   1.000000
   10      -16.178586    -16.179221   1.000000   1.000000
   11      -16.132677    -16.132549   1.000000   1.000000
   12      -16.131327    -16.131479   1.000000   1.000000
   13      -16.121075    -16.121073   1.000000   1.000000
   14      -16.119652    -16.119634   1.000000   1.000000
   15      -16.109023    -16.109278   1.000000   1.000000
   16      -16.107155    -16.106857   1.000000   1.000000
   17      -11.839179    -11.837973   1.000000   1.000000
   18      -11.767760    -11.768612   1.000000   1.000000
   19      -10.857577    -10.855792   1.000000   1.000000
   20      -10.744885    -10.741716   1.000000   1.000000
   21      -10.710255    -10.715291   1.000000   1.000000
   22      -10.644217    -10.644284   1.000000   1.000000
   23       -3.485483     -3.485393   1.000000   1.000000
   24       -3.453453     -3.453446   1.000000   1.000000
   25        0.611112      0.612697   1.000000   1.000000
   26        0.771464      0.768208   1.000000   1.000000
   27        0.858996      0.864758   1.000000   1.000000
   28        1.138724      1.135960   1.000000   1.000000
   29        1.246148      1.250473   1.000000   1.000000
   30        1.491818      1.500108   1.000000   1.000000
   31        1.784361      1.781926   1.000000   1.000000
   32        1.972671      1.986243   1.000000   1.000000
   33        2.244588      2.231744   1.000000   1.000000
   34        2.661016      2.660137   1.000000   1.000000
   35        2.878354      2.877690   1.000000   1.000000
   36        3.158947      3.160999   1.000000   1.000000
   37        3.469242      3.470538   1.000000   1.000000
   38        3.801226      3.799269   1.000000   1.000000
   39        4.067377      4.072477   1.000000   1.000000
   40        4.223042      4.215008   1.000000   1.000000
   41        4.270842      4.275613   1.000000   1.000000
   42        4.570095      4.578229   1.000000   1.000000
   43        4.603905      4.598827   1.000000   1.000000
   44        5.215392      5.209812   1.000000   1.000000
   45        5.395450      5.403230   1.000000   1.000000
   46        5.850349      5.850298   1.000000   1.000000
   47        6.055457      6.054433   1.000000   1.000000
   48        7.683982      7.679973   0.000000   0.000000
   49        7.753730      7.750015   0.000000   0.000000
   50        7.964580      7.961181   0.000000   0.000000
   51        8.829901      8.823199   0.000000   0.000000
   52        8.938293      8.939959   0.000000   0.000000
   53        9.870590      9.873344   0.000000   0.000000
   54        9.975072      9.971777   0.000000   0.000000
   55       11.100642     11.097442   0.000000   0.000000
   56       11.201639     11.204432   0.000000   0.000000
 
  0.5000000E+00  0.4347826E-01  0.0000000E+00  0.8333333E-02
    1      -49.968862    -49.963767   1.000000   1.000000
    2      -49.911441    -49.906655   1.000000   1.000000
    3      -49.911392    -49.906622   1.000000   1.000000
    4      -45.493706    -45.498725   1.000000   1.000000
    5      -45.444987    -45.449783   1.000000   1.000000
    6      -45.444958    -45.449740   1.000000   1.000000
    7      -16.198526    -16.197696   1.000000   1.000000
    8      -16.192999    -16.194659   1.000000   1.000000
    9      -16.182768    -16.180744   1.000000   1.000000
   10      -16.176404    -16.177642   1.000000   1.000000
   11      -16.132933    -16.132520   1.000000   1.000000
   12      -16.131302    -16.131798   1.000000   1.000000
   13      -16.121046    -16.121105   1.000000   1.000000
   14      -16.119733    -16.119535   1.000000   1.000000
   15      -16.109018    -16.109334   1.000000   1.000000
   16      -16.106738    -16.106433   1.000000   1.000000
   17      -11.848872    -11.847649   1.000000   1.000000
   18      -11.753194    -11.754117   1.000000   1.000000
   19      -10.860812    -10.859377   1.000000   1.000000
   20      -10.755346    -10.744685   1.000000   1.000000
   21      -10.704719    -10.720255   1.000000   1.000000
   22      -10.642130    -10.638779   1.000000   1.000000
   23       -3.500853     -3.500712   1.000000   1.000000
   24       -3.439135     -3.439193   1.000000   1.000000
   25        0.603226      0.602709   1.000000   1.000000
   26        0.778228      0.763701   1.000000   1.000000
   27        0.863328      0.878635   1.000000   1.000000
   28        1.138214      1.125608   1.000000   1.000000
   29        1.251996      1.261399   1.000000   1.000000
   30        1.485511      1.516501   1.000000   1.000000
   31        1.782284      1.771729   1.000000   1.000000
   32        1.955021      1.994606   1.000000   1.000000
   33        2.287915      2.241254   1.000000   1.000000
   34        2.658891      2.653174   1.000000   1.000000
   35        2.882109      2.881215   1.000000   1.000000
   36        3.160140      3.163606   1.000000   1.000000
   37        3.463652      3.463414   1.000000   1.000000
   38        3.793909      3.788275   1.000000   1.000000
   39        4.060255      4.076873   1.000000   1.000000
   40        4.223647      4.199724   1.000000   1.000000
   41        4.269778      4.285564   1.000000   1.000000
   42        4.559104      4.580453   1.000000   1.000000
   43        4.615322      4.605307   1.000000   1.000000
   44        5.221624      5.201955   1.000000   1.000000
   45        5.383559      5.410597   1.000000   1.000000
   46        5.848689      5.845511   1.000000   1.000000
   47        6.056095      6.048487   1.000000   1.000000
   48        7.686868      7.681402   0.000000   0.000000
   49        7.754620      7.750679   0.000000   0.000000
   50        7.962894      7.959210   0.000000   0.000000
   51        8.830360      8.814888   0.000000   0.000000
   52        8.935986      8.950697   0.000000   0.000000
   53        9.868098      9.876967   0.000000   0.000000
   54        9.980201      9.970120   0.000000   0.000000
   55       11.059853     11.052857   0.000000   0.000000
   56       11.236506     11.242278   0.000000   0.000000
 
  0.5000000E+00  0.6521739E-01  0.0000000E+00  0.8333333E-02
    1      -49.968863    -49.963768   1.000000   1.000000
    2      -49.911440    -49.906654   1.000000   1.000000
    3      -49.911391    -49.906621   1.000000   1.000000
    4      -45.493706    -45.498726   1.000000   1.000000
    5      -45.444987    -45.449783   1.000000   1.000000
    6      -45.444957    -45.449740   1.000000   1.000000
    7      -16.201124    -16.200390   1.000000   1.000000
    8      -16.192946    -16.194855   1.000000   1.000000
    9      -16.182728    -16.180171   1.000000   1.000000
   10      -16.173962    -16.175396   1.000000   1.000000
   11      -16.133346    -16.132501   1.000000   1.000000
   12      -16.131263    -16.132276   1.000000   1.000000
   13      -16.121014    -16.121158   1.000000   1.000000
   14      -16.119855    -16.119407   1.000000   1.000000
   15      -16.109016    -16.109391   1.000000   1.000000
   16      -16.106069    -16.105775   1.000000   1.000000
   17      -11.859938    -11.858638   1.000000   1.000000
   18      -11.734106    -11.735192   1.000000   1.000000
   19      -10.866231    -10.865219   1.000000   1.000000
   20      -10.768017    -10.751395   1.000000   1.000000
   21      -10.700463    -10.725076   1.000000   1.000000
   22      -10.638440    -10.631451   1.000000   1.000000
   23       -3.517126     -3.516940   1.000000   1.000000
   24       -3.424607     -3.424734   1.000000   1.000000
   25        0.591047      0.587220   1.000000   1.000000
   26        0.788619      0.759699   1.000000   1.000000
   27        0.870438      0.896021   1.000000   1.000000
   28        1.137298      1.115930   1.000000   1.000000
   29        1.261555      1.273870   1.000000   1.000000
   30        1.475317      1.542643   1.000000   1.000000
   31        1.778246      1.757244   1.000000   1.000000
   32        1.939134      2.005479   1.000000   1.000000
   33        2.345733      2.257287   1.000000   1.000000
   34        2.655494      2.642994   1.000000   1.000000
   35        2.888939      2.885750   1.000000   1.000000
   36        3.162193      3.167536   1.000000   1.000000
   37        3.454455      3.452691   1.000000   1.000000
   38        3.783104      3.772304   1.000000   1.000000
   39        4.047752      4.079673   1.000000   1.000000
   40        4.219301      4.183084   1.000000   1.000000
   41        4.272903      4.296406   1.000000   1.000000
   42        4.549723      4.582494   1.000000   1.000000
   43        4.626327      4.616387   1.000000   1.000000
   44        5.230790      5.190791   1.000000   1.000000
   45        5.364587      5.421081   1.000000   1.000000
   46        5.845863      5.837543   1.000000   1.000000
   47        6.056805      6.038876   1.000000   1.000000
   48        7.691560      7.683597   0.000000   0.000000
   49        7.756001      7.751899   0.000000   0.000000
   50        7.960169      7.955956   0.000000   0.000000
   51        8.829174      8.802996   0.000000   0.000000
   52        8.934339      8.966314   0.000000   0.000000
   53        9.861783      9.882235   0.000000   0.000000
   54        9.990149      9.967414   0.000000   0.000000
   55       11.018451     11.008239   0.000000   0.000000
   56       11.268335     11.276284   0.000000   0.000000
 
  0.5000000E+00  0.8695652E-01  0.0000000E+00  0.8333333E-02
    1      -49.968864    -49.963769   1.000000   1.000000
    2      -49.911443    -49.906654   1.000000   1.000000
    3      -49.911391    -49.906623   1.000000   1.000000
    4      -45.493707    -45.498727   1.000000   1.000000
    5      -45.444987    -45.449785   1.000000   1.000000
    6      -45.444960    -45.449739   1.000000   1.000000
    7      -16.204018    -16.203438   1.000000   1.000000
    8      -16.193158    -16.195046   1.000000   1.000000
    9      -16.182227    -16.179509   1.000000   1.000000
   10      -16.171441    -16.172912   1.000000   1.000000
   11      -16.133890    -16.132992   1.000000   1.000000
   12      -16.131206    -16.132367   1.000000   1.000000
   13      -16.120990    -16.121222   1.000000   1.000000
   14      -16.119992    -16.119277   1.000000   1.000000
   15      -16.109009    -16.109431   1.000000   1.000000
   16      -16.105185    -16.104920   1.000000   1.000000
   17      -11.870559    -11.869153   1.000000   1.000000
   18      -11.712346    -11.713666   1.000000   1.000000
   19      -10.873871    -10.873131   1.000000   1.000000
   20      -10.781691    -10.762348   1.000000   1.000000
   21      -10.698509    -10.728160   1.000000   1.000000
   22      -10.633107    -10.623388   1.000000   1.000000
   23       -3.534182     -3.533954   1.000000   1.000000
   24       -3.409958     -3.410158   1.000000   1.000000
   25        0.575483      0.567616   1.000000   1.000000
   26        0.801779      0.757424   1.000000   1.000000
   27        0.880236      0.913129   1.000000   1.000000
   28        1.135965      1.111353   1.000000   1.000000
   29        1.274381      1.285889   1.000000   1.000000
   30        1.462022      1.576616   1.000000   1.000000
   31        1.772288      1.740781   1.000000   1.000000
   32        1.931232      2.016066   1.000000   1.000000
   33        2.408750      2.279898   1.000000   1.000000
   34        2.651927      2.631175   1.000000   1.000000
   35        2.899471      2.889906   1.000000   1.000000
   36        3.165215      3.171954   1.000000   1.000000
   37        3.441897      3.440204   1.000000   1.000000
   38        3.770257      3.753542   1.000000   1.000000
   39        4.030168      4.075394   1.000000   1.000000
   40        4.205166      4.170211   1.000000   1.000000
   41        4.284165      4.307387   1.000000   1.000000
   42        4.543644      4.583933   1.000000   1.000000
   43        4.635914      4.630736   1.000000   1.000000
   44        5.241163      5.178251   1.000000   1.000000
   45        5.339874      5.432938   1.000000   1.000000
   46        5.841856      5.826458   1.000000   1.000000
   47        6.057089      6.026036   1.000000   1.000000
   48        7.697892      7.686299   0.000000   0.000000
   49        7.757732      7.753858   0.000000   0.000000
   50        7.956552      7.951486   0.000000   0.000000
   51        8.823761      8.788677   0.000000   0.000000
   52        8.936253      8.985190   0.000000   0.000000
   53        9.849991      9.887287   0.000000   0.000000
   54       10.005595      9.964581   0.000000   0.000000
   55       10.979714     10.967261   0.000000   0.000000
   56       11.294175     11.303578   0.000000   0.000000
 
  0.5000000E+00  0.1086957E+00  0.0000000E+00  0.8333333E-02
    1      -49.968864    -49.963770   1.000000   1.000000
    2      -49.911443    -49.906655   1.000000   1.000000
    3      -49.911392    -49.906622   1.000000   1.000000
    4      -45.493708    -45.498727   1.000000   1.000000
    5      -45.444988    -45.449785   1.000000   1.000000
    6      -45.444959    -45.449741   1.000000   1.000000
    7      -16.207082    -16.206640   1.000000   1.000000
    8      -16.193503    -16.195245   1.000000   1.000000
    9      -16.181421    -16.178739   1.000000   1.000000
   10      -16.168954    -16.170412   1.000000   1.000000
   11      -16.134531    -16.133744   1.000000   1.000000
   12      -16.131134    -16.132276   1.000000   1.000000
   13      -16.120993    -16.121291   1.000000   1.000000
   14      -16.120113    -16.119163   1.000000   1.000000
   15      -16.108995    -16.109441   1.000000   1.000000
   16      -16.104116    -16.103892   1.000000   1.000000
   17      -11.880013    -11.878488   1.000000   1.000000
   18      -11.688728    -11.690328   1.000000   1.000000
   19      -10.883690    -10.882924   1.000000   1.000000
   20      -10.795838    -10.776294   1.000000   1.000000
   21      -10.698872    -10.730104   1.000000   1.000000
   22      -10.626497    -10.615243   1.000000   1.000000
   23       -3.552023     -3.551756   1.000000   1.000000
   24       -3.395140     -3.395417   1.000000   1.000000
   25        0.557306      0.545226   1.000000   1.000000
   26        0.816890      0.757076   1.000000   1.000000
   27        0.892689      0.927819   1.000000   1.000000
   28        1.134303      1.113721   1.000000   1.000000
   29        1.289509      1.297645   1.000000   1.000000
   30        1.447202      1.615693   1.000000   1.000000
   31        1.765567      1.724600   1.000000   1.000000
   32        1.932761      2.024208   1.000000   1.000000
   33        2.467742      2.308808   1.000000   1.000000
   34        2.652180      2.619281   1.000000   1.000000
   35        2.914203      2.892492   1.000000   1.000000
   36        3.169367      3.175410   1.000000   1.000000
   37        3.426417      3.428599   1.000000   1.000000
   38        3.756617      3.733724   1.000000   1.000000
   39        4.008666      4.060469   1.000000   1.000000
   40        4.182160      4.163794   1.000000   1.000000
   41        4.301831      4.318740   1.000000   1.000000
   42        4.541488      4.584847   1.000000   1.000000
   43        4.643579      4.646338   1.000000   1.000000
   44        5.249707      5.166080   1.000000   1.000000
   45        5.312196      5.444602   1.000000   1.000000
   46        5.836738      5.812437   1.000000   1.000000
   47        6.056339      6.010512   1.000000   1.000000
   48        7.705628      7.689138   0.000000   0.000000
   49        7.759658      7.756805   0.000000   0.000000
   50        7.952228      7.945886   0.000000   0.000000
   51        8.812120      8.772463   0.000000   0.000000
   52        8.944036      9.006267   0.000000   0.000000
   53        9.832075      9.887953   0.000000   0.000000
   54       10.026068      9.964711   0.000000   0.000000
   55       10.945471     10.932268   0.000000   0.000000
   56       11.312862     11.322533   0.000000   0.000000
 
  0.5000000E+00  0.1304348E+00  0.0000000E+00  0.8333333E-02
    1      -49.968864    -49.963769   1.000000   1.000000
    2      -49.911442    -49.906653   1.000000   1.000000
    3      -49.911390    -49.906622   1.000000   1.000000
    4      -45.493707    -45.498726   1.000000   1.000000
    5      -45.444985    -45.449784   1.000000   1.000000
    6      -45.444959    -45.449738   1.000000   1.000000
    7      -16.210223    -16.209887   1.000000   1.000000
    8      -16.193886    -16.195437   1.000000   1.000000
    9      -16.180419    -16.177866   1.000000   1.000000
   10      -16.166561    -16.167987   1.000000   1.000000
   11      -16.135239    -16.134563   1.000000   1.000000
   12      -16.131044    -16.132156   1.000000   1.000000
   13      -16.121039    -16.121360   1.000000   1.000000
   14      -16.120192    -16.119078   1.000000   1.000000
   15      -16.108962    -16.109411   1.000000   1.000000
   16      -16.102899    -16.102718   1.000000   1.000000
   17      -11.887978    -11.886342   1.000000   1.000000
   18      -11.663677    -11.665589   1.000000   1.000000
   19      -10.895643    -10.894411   1.000000   1.000000
   20      -10.810162    -10.791996   1.000000   1.000000
   21      -10.701075    -10.731722   1.000000   1.000000
   22      -10.619137    -10.607338   1.000000   1.000000
   23       -3.570650     -3.570348   1.000000   1.000000
   24       -3.380082     -3.380438   1.000000   1.000000
   25        0.537109      0.521095   1.000000   1.000000
   26        0.833144      0.758667   1.000000   1.000000
   27        0.907846      0.939718   1.000000   1.000000
   28        1.132509      1.122270   1.000000   1.000000
   29        1.304952      1.310299   1.000000   1.000000
   30        1.433614      1.654619   1.000000   1.000000
   31        1.759882      1.713135   1.000000   1.000000
   32        1.942616      2.028600   1.000000   1.000000
   33        2.508966      2.343242   1.000000   1.000000
   34        2.666149      2.608689   1.000000   1.000000
   35        2.933285      2.892654   1.000000   1.000000
   36        3.174952      3.175940   1.000000   1.000000
   37        3.408688      3.421076   1.000000   1.000000
   38        3.743055      3.714054   1.000000   1.000000
   39        3.984797      4.036368   1.000000   1.000000
   40        4.153132      4.162035   1.000000   1.000000
   41        4.322830      4.330516   1.000000   1.000000
   42        4.543242      4.585422   1.000000   1.000000
   43        4.648879      4.661196   1.000000   1.000000
   44        5.246738      5.155731   1.000000   1.000000
   45        5.291243      5.454696   1.000000   1.000000
   46        5.830645      5.795879   1.000000   1.000000
   47        6.053879      5.992906   1.000000   1.000000
   48        7.714465      7.691696   0.000000   0.000000
   49        7.761635      7.761016   0.000000   0.000000
   50        7.947442      7.939296   0.000000   0.000000
   51        8.794099      8.754461   0.000000   0.000000
   52        8.958053      9.028788   0.000000   0.000000
   53        9.808198      9.878758   0.000000   0.000000
   54       10.050328      9.972301   0.000000   0.000000
   55       10.916936     10.904682   0.000000   0.000000
   56       11.324287     11.333272   0.000000   0.000000
 
  0.5000000E+00  0.1521739E+00  0.0000000E+00  0.8333333E-02
    1      -49.968864    -49.963769   1.000000   1.000000
    2      -49.911441    -49.906652   1.000000   1.000000
    3      -49.911389    -49.906622   1.000000   1.000000
    4      -45.493707    -45.498726   1.000000   1.000000
    5      -45.444984    -45.449784   1.000000   1.000000
    6      -45.444959    -45.449737   1.000000   1.000000
    7      -16.213386    -16.213131   1.000000   1.000000
    8      -16.194267    -16.195621   1.000000   1.000000
    9      -16.179302    -16.176917   1.000000   1.000000
   10      -16.164324    -16.165711   1.000000   1.000000
   11      -16.135987    -16.135413   1.000000   1.000000
   12      -16.130942    -16.132017   1.000000   1.000000
   13      -16.121147    -16.121438   1.000000   1.000000
   14      -16.120226    -16.119039   1.000000   1.000000
   15      -16.108905    -16.109340   1.000000   1.000000
   16      -16.101569    -16.101426   1.000000   1.000000
   17      -11.894390    -11.892668   1.000000   1.000000
   18      -11.637513    -11.639746   1.000000   1.000000
   19      -10.909673    -10.907476   1.000000   1.000000
   20      -10.824524    -10.808777   1.000000   1.000000
   21      -10.704677    -10.733468   1.000000   1.000000
   22      -10.611549    -10.599899   1.000000   1.000000
   23       -3.590027     -3.589697   1.000000   1.000000
   24       -3.364762     -3.365193   1.000000   1.000000
   25        0.515358      0.495989   1.000000   1.000000
   26        0.849720      0.762379   1.000000   1.000000
   27        0.925782      0.949721   1.000000   1.000000
   28        1.130874      1.134289   1.000000   1.000000
   29        1.316948      1.325161   1.000000   1.000000
   30        1.425703      1.673036   1.000000   1.000000
   31        1.756835      1.725931   1.000000   1.000000
   32        1.959015      2.028791   1.000000   1.000000
   33        2.521233      2.381916   1.000000   1.000000
   34        2.701788      2.600516   1.000000   1.000000
   35        2.956237      2.889890   1.000000   1.000000
   36        3.182568      3.171809   1.000000   1.000000
   37        3.389614      3.420479   1.000000   1.000000
   38        3.730072      3.695379   1.000000   1.000000
   39        3.960111      4.006356   1.000000   1.000000
   40        4.120715      4.162067   1.000000   1.000000
   41        4.344978      4.342193   1.000000   1.000000
   42        4.548562      4.585977   1.000000   1.000000
   43        4.651383      4.673569   1.000000   1.000000
   44        5.220001      5.148327   1.000000   1.000000
   45        5.289622      5.461904   1.000000   1.000000
   46        5.823745      5.777494   1.000000   1.000000
   47        6.049052      5.973806   1.000000   1.000000
   48        7.723969      7.693576   0.000000   0.000000
   49        7.763583      7.766683   0.000000   0.000000
   50        7.942462      7.931886   0.000000   0.000000
   51        8.770747      8.734574   0.000000   0.000000
   52        8.977289      9.052162   0.000000   0.000000
   53        9.778941      9.858005   0.000000   0.000000
   54       10.076956      9.988450   0.000000   0.000000
   55       10.894543     10.885002   0.000000   0.000000
   56       11.328967     11.336060   0.000000   0.000000
 
  0.5000000E+00  0.1739130E+00  0.0000000E+00  0.8333333E-02
    1      -49.968864    -49.963770   1.000000   1.000000
    2      -49.911441    -49.906651   1.000000   1.000000
    3      -49.911387    -49.906621   1.000000   1.000000
    4      -45.493708    -45.498726   1.000000   1.000000
    5      -45.444982    -45.449784   1.000000   1.000000
    6      -45.444958    -45.449735   1.000000   1.000000
    7      -16.216525    -16.216331   1.000000   1.000000
    8      -16.194615    -16.195784   1.000000   1.000000
    9      -16.178110    -16.175907   1.000000   1.000000
   10      -16.162279    -16.163623   1.000000   1.000000
   11      -16.136749    -16.136266   1.000000   1.000000
   12      -16.130827    -16.131859   1.000000   1.000000
   13      -16.121305    -16.121525   1.000000   1.000000
   14      -16.120229    -16.119051   1.000000   1.000000
   15      -16.108818    -16.109221   1.000000   1.000000
   16      -16.100156    -16.100047   1.000000   1.000000
   17      -11.899182    -11.897393   1.000000   1.000000
   18      -11.610473    -11.613046   1.000000   1.000000
   19      -10.925596    -10.922040   1.000000   1.000000
   20      -10.838825    -10.826104   1.000000   1.000000
   21      -10.709262    -10.735524   1.000000   1.000000
   22      -10.604101    -10.593024   1.000000   1.000000
   23       -3.610061     -3.609710   1.000000   1.000000
   24       -3.349190     -3.349687   1.000000   1.000000
   25        0.492456      0.470492   1.000000   1.000000
   26        0.865873      0.768550   1.000000   1.000000
   27        0.946417      0.958943   1.000000   1.000000
   28        1.129769      1.146714   1.000000   1.000000
   29        1.320892      1.342997   1.000000   1.000000
   30        1.428464      1.667202   1.000000   1.000000
   31        1.757648      1.765992   1.000000   1.000000
   32        1.980351      2.025247   1.000000   1.000000
   33        2.511970      2.423064   1.000000   1.000000
   34        2.748925      2.595608   1.000000   1.000000
   35        2.981466      2.884051   1.000000   1.000000
   36        3.193337      3.162700   1.000000   1.000000
   37        3.370340      3.428024   1.000000   1.000000
   38        3.717896      3.678380   1.000000   1.000000
   39        3.935894      3.972530   1.000000   1.000000
   40        4.087476      4.162720   1.000000   1.000000
   41        4.366785      4.352747   1.000000   1.000000
   42        4.556982      4.587009   1.000000   1.000000
   43        4.650759      4.682142   1.000000   1.000000
   44        5.182439      5.144574   1.000000   1.000000
   45        5.295145      5.464916   1.000000   1.000000
   46        5.816197      5.758366   1.000000   1.000000
   47        6.041278      5.953749   1.000000   1.000000
   48        7.733471      7.694524   0.000000   0.000000
   49        7.765635      7.773837   0.000000   0.000000
   50        7.937593      7.923899   0.000000   0.000000
   51        8.743225      8.712657   0.000000   0.000000
   52        9.000489      9.075884   0.000000   0.000000
   53        9.745151      9.827701   0.000000   0.000000
   54       10.104701     10.011142   0.000000   0.000000
   55       10.877952     10.872455   0.000000   0.000000
   56       11.328367     11.333256   0.000000   0.000000
 