   10   10    1    2
  0.1285713E+02  0.5706178E-09  0.5706178E-09  0.5706178E-09  0.5000000E-15
  1.000000000000000E-004
  CAR 
 unknown system                          
     94    120     56
 
  0.5000000E+00  0.0000000E+00  0.0000000E+00  0.8333333E-02
    1      -51.885494    -51.880704   1.000000   1.000000
    2      -51.821333    -51.816852   1.000000   1.000000
    3      -51.821303    -51.816818   1.000000   1.000000
    4      -46.837701    -46.842407   1.000000   1.000000
    5      -46.790378    -46.794875   1.000000   1.000000
    6      -46.790351    -46.794848   1.000000   1.000000
    7      -16.014323    -16.014411   1.000000   1.000000
    8      -16.013139    -16.013084   1.000000   1.000000
    9      -16.000246    -16.000359   1.000000   1.000000
   10      -15.999325    -15.999196   1.000000   1.000000
   11      -15.957714    -15.957684   1.000000   1.000000
   12      -15.956995    -15.957026   1.000000   1.000000
   13      -15.945685    -15.945657   1.000000   1.000000
   14      -15.944684    -15.944717   1.000000   1.000000
   15      -15.934139    -15.934280   1.000000   1.000000
   16      -15.933427    -15.933258   1.000000   1.000000
   17      -11.660109    -11.658724   1.000000   1.000000
   18      -11.618024    -11.618954   1.000000   1.000000
   19      -10.730843    -10.729301   1.000000   1.000000
   20      -10.639564    -10.640373   1.000000   1.000000
   21      -10.548705    -10.548816   1.000000   1.000000
   22      -10.489603    -10.490013   1.000000   1.000000
   23       -3.586919     -3.585456   1.000000   1.000000
   24       -3.551367     -3.550249   1.000000   1.000000
   25       -2.918894     -2.915075   1.000000   1.000000
   26       -2.839729     -2.835878   1.000000   1.000000
   27       -2.755527     -2.751249   1.000000   1.000000
   28       -2.560444     -2.557420   1.000000   1.000000
   29       -2.372794     -2.369598   1.000000   1.000000
   30        1.083202      1.082562   1.000000   1.000000
   31        1.260780      1.261193   1.000000   1.000000
   32        1.790293      1.790413   1.000000   1.000000
   33        2.042900      2.042739   1.000000   1.000000
   34        2.341138      2.340715   1.000000   1.000000
   35        2.552612      2.552242   1.000000   1.000000
   36        2.861727      2.862639   1.000000   1.000000
   37        3.160078      3.159267   1.000000   1.000000
   38        3.661091      3.660316   1.000000   1.000000
   39        4.106707      4.107073   1.000000   1.000000
   40        4.374536      4.374334   1.000000   1.000000
   41        4.475778      4.474583   1.000000   1.000000
   42        4.654259      4.654631   1.000000   1.000000
   43        4.770291      4.769931   1.000000   1.000000
   44        4.938437      4.939515   1.000000   1.000000
   45        5.139118      5.139550   1.000000   1.000000
   46        5.502763      5.502248   1.000000   1.000000
   47        5.727090      5.727302   1.000000   1.000000
   48        8.974443      8.971486   0.000000   0.000000
   49        9.291193      9.287854   0.000000   0.000000
   50        9.441901      9.438766   0.000000   0.000000
   51        9.481172      9.477618   0.000000   0.000000
   52        9.567699      9.564205   0.000000   0.000000
   53        9.989336      9.989606   0.000000   0.000000
   54       10.222609     10.221000   0.000000   0.000000
   55       11.232671     11.231688   0.000000   0.000000
   56       11.336040     11.335507   0.000000   0.000000
 
  0.5000000E+00  0.2173913E-01  0.0000000E+00  0.8333333E-02
    1      -51.885494    -51.880705   1.000000   1.000000
    2      -51.821331    -51.816849   1.000000   1.000000
    3      -51.821300    -51.816817   1.000000   1.000000
    4      -46.837702    -46.842408   1.000000   1.000000
    5      -46.790374    -46.794874   1.000000   1.000000
    6      -46.790350    -46.794845   1.000000   1.000000
    7      -16.015315    -16.015028   1.000000   1.000000
    8      -16.012707    -16.013130   1.000000   1.000000
    9      -16.000841    -16.000452   1.000000   1.000000
   10      -15.998185    -15.998457   1.000000   1.000000
   11      -15.957784    -15.957672   1.000000   1.000000
   12      -15.956982    -15.957106   1.000000   1.000000
   13      -15.945662    -15.945683   1.000000   1.000000
   14      -15.944733    -15.944693   1.000000   1.000000
   15      -15.934384    -15.934503   1.000000   1.000000
   16      -15.933016    -15.932883   1.000000   1.000000
   17      -11.666555    -11.664700   1.000000   1.000000
   18      -11.610004    -11.611445   1.000000   1.000000
   19      -10.731393    -10.730272   1.000000   1.000000
   20      -10.640452    -10.640344   1.000000   1.000000
   21      -10.549650    -10.550969   1.000000   1.000000
   22      -10.489100    -10.488739   1.000000   1.000000
   23       -3.591649     -3.589349   1.000000   1.000000
   24       -3.546867     -3.546689   1.000000   1.000000
   25       -2.919335     -2.915965   1.000000   1.000000
   26       -2.839997     -2.835546   1.000000   1.000000
   27       -2.756022     -2.752041   1.000000   1.000000
   28       -2.559219     -2.556178   1.000000   1.000000
   29       -2.373214     -2.369942   1.000000   1.000000
   30        1.078917      1.080772   1.000000   1.000000
   31        1.266848      1.266601   1.000000   1.000000
   32        1.785908      1.791354   1.000000   1.000000
   33        2.046568      2.041961   1.000000   1.000000
   34        2.349838      2.340140   1.000000   1.000000
   35        2.552468      2.554434   1.000000   1.000000
   36        2.862596      2.862586   1.000000   1.000000
   37        3.159496      3.164832   1.000000   1.000000
   38        3.661730      3.658548   1.000000   1.000000
   39        4.103052      4.106607   1.000000   1.000000
   40        4.371774      4.366924   1.000000   1.000000
   41        4.475534      4.477526   1.000000   1.000000
   42        4.654153      4.654528   1.000000   1.000000
   43        4.769383      4.768974   1.000000   1.000000
   44        4.935137      4.937683   1.000000   1.000000
   45        5.137989      5.139380   1.000000   1.000000
   46        5.503658      5.502862   1.000000   1.000000
   47        5.728511      5.726074   1.000000   1.000000
   48        8.976792      8.972888   0.000000   0.000000
   49        9.291135      9.288183   0.000000   0.000000
   50        9.441210      9.436505   0.000000   0.000000
   51        9.480880      9.478342   0.000000   0.000000
   52        9.566568      9.565740   0.000000   0.000000
   53        9.989116      9.991041   0.000000   0.000000
   54       10.223366     10.220352   0.000000   0.000000
   55       11.218512     11.211813   0.000000   0.000000
   56       11.348638     11.352695   0.000000   0.000000
 
  0.5000000E+00  0.4347826E-01  0.0000000E+00  0.8333333E-02
    1      -51.885493    -51.880704   1.000000   1.000000
    2      -51.821329    -51.816846   1.000000   1.000000
    3      -51.821297    -51.816815   1.000000   1.000000
    4      -46.837701    -46.842407   1.000000   1.000000
    5      -46.790371    -46.794871   1.000000   1.000000
    6      -46.790348    -46.794841   1.000000   1.000000
    7      -16.017237    -16.016709   1.000000   1.000000
    8      -16.012364    -16.013226   1.000000   1.000000
    9      -16.001204    -16.000361   1.000000   1.000000
   10      -15.996313    -15.996843   1.000000   1.000000
   11      -15.958000    -15.957654   1.000000   1.000000
   12      -15.956953    -15.957340   1.000000   1.000000
   13      -15.945604    -15.945767   1.000000   1.000000
   14      -15.944878    -15.944630   1.000000   1.000000
   15      -15.934712    -15.934853   1.000000   1.000000
   16      -15.932229    -15.932107   1.000000   1.000000
   17      -11.679130    -11.676401   1.000000   1.000000
   18      -11.592832    -11.595268   1.000000   1.000000
   19      -10.733125    -10.733147   1.000000   1.000000
   20      -10.643069    -10.640337   1.000000   1.000000
   21      -10.552453    -10.556971   1.000000   1.000000
   22      -10.487672    -10.485426   1.000000   1.000000
   23       -3.602183     -3.598462   1.000000   1.000000
   24       -3.537049     -3.538594   1.000000   1.000000
   25       -2.920602     -2.918516   1.000000   1.000000
   26       -2.840815     -2.834633   1.000000   1.000000
   27       -2.757408     -2.754312   1.000000   1.000000
   28       -2.555689     -2.552593   1.000000   1.000000
   29       -2.374481     -2.370988   1.000000   1.000000
   30        1.067699      1.076096   1.000000   1.000000
   31        1.283400      1.282075   1.000000   1.000000
   32        1.774462      1.794174   1.000000   1.000000
   33        2.056400      2.039694   1.000000   1.000000
   34        2.375176      2.338647   1.000000   1.000000
   35        2.552065      2.560801   1.000000   1.000000
   36        2.865189      2.862582   1.000000   1.000000
   37        3.157850      3.181176   1.000000   1.000000
   38        3.663631      3.653445   1.000000   1.000000
   39        4.092533      4.105058   1.000000   1.000000
   40        4.362877      4.347294   1.000000   1.000000
   41        4.474998      4.483850   1.000000   1.000000
   42        4.653581      4.654229   1.000000   1.000000
   43        4.766801      4.765882   1.000000   1.000000
   44        4.926016      4.932717   1.000000   1.000000
   45        5.134468      5.138477   1.000000   1.000000
   46        5.505843      5.504663   1.000000   1.000000
   47        5.732824      5.722553   1.000000   1.000000
   48        8.983739      8.976975   0.000000   0.000000
   49        9.290998      9.289162   0.000000   0.000000
   50        9.439009      9.429866   0.000000   0.000000
   51        9.479846      9.480408   0.000000   0.000000
   52        9.563513      9.570195   0.000000   0.000000
   53        9.987954      9.995380   0.000000   0.000000
   54       10.225987     10.218181   0.000000   0.000000
   55       11.189012     11.171432   0.000000   0.000000
   56       11.372423     11.384231   0.000000   0.000000
 
  0.5000000E+00  0.6521739E-01  0.0000000E+00  0.8333333E-02
    1      -51.885494    -51.880705   1.000000   1.000000
    2      -51.821330    -51.816845   1.000000   1.000000
    3      -51.821296    -51.816815   1.000000   1.000000
    4      -46.837702    -46.842408   1.000000   1.000000
    5      -46.790369    -46.794871   1.000000   1.000000
    6      -46.790349    -46.794840   1.000000   1.000000
    7      -16.019644    -16.019075   1.000000   1.000000
    8      -16.012299    -16.013347   1.000000   1.000000
    9      -16.001107    -16.000012   1.000000   1.000000
   10      -15.994211    -15.994853   1.000000   1.000000
   11      -15.958348    -15.957818   1.000000   1.000000
   12      -15.956907    -15.957522   1.000000   1.000000
   13      -15.945524    -15.945903   1.000000   1.000000
   14      -15.945099    -15.944542   1.000000   1.000000
   15      -15.934974    -15.935157   1.000000   1.000000
   16      -15.931239    -15.931123   1.000000   1.000000
   17      -11.692303    -11.688646   1.000000   1.000000
   18      -11.572105    -11.575669   1.000000   1.000000
   19      -10.736106    -10.737882   1.000000   1.000000
   20      -10.647283    -10.640437   1.000000   1.000000
   21      -10.556976    -10.565796   1.000000   1.000000
   22      -10.485535    -10.481070   1.000000   1.000000
   23       -3.615003     -3.610017   1.000000   1.000000
   24       -3.525475     -3.528762   1.000000   1.000000
   25       -2.922551     -2.922417   1.000000   1.000000
   26       -2.842195     -2.833322   1.000000   1.000000
   27       -2.759428     -2.757771   1.000000   1.000000
   28       -2.550251     -2.547039   1.000000   1.000000
   29       -2.376585     -2.372757   1.000000   1.000000
   30        1.052750      1.069994   1.000000   1.000000
   31        1.307189      1.305966   1.000000   1.000000
   32        1.759745      1.798855   1.000000   1.000000
   33        2.070091      2.036146   1.000000   1.000000
   34        2.414938      2.336816   1.000000   1.000000
   35        2.551559      2.570826   1.000000   1.000000
   36        2.869479      2.863006   1.000000   1.000000
   37        3.155432      3.207305   1.000000   1.000000
   38        3.666767      3.645598   1.000000   1.000000
   39        4.076309      4.102018   1.000000   1.000000
   40        4.346631      4.319611   1.000000   1.000000
   41        4.474404      4.489713   1.000000   1.000000
   42        4.651772      4.653570   1.000000   1.000000
   43        4.762979      4.760234   1.000000   1.000000
   44        4.913044      4.925979   1.000000   1.000000
   45        5.128336      5.135830   1.000000   1.000000
   46        5.508056      5.507518   1.000000   1.000000
   47        5.740073      5.717218   1.000000   1.000000
   48        8.994949      8.983406   0.000000   0.000000
   49        9.290894      9.290777   0.000000   0.000000
   50        9.435030      9.419181   0.000000   0.000000
   51        9.477626      9.483591   0.000000   0.000000
   52        9.559525      9.577147   0.000000   0.000000
   53        9.984527     10.002724   0.000000   0.000000
   54       10.231434     10.213875   0.000000   0.000000
   55       11.155540     11.126909   0.000000   0.000000
   56       11.398029     11.414629   0.000000   0.000000
 
  0.5000000E+00  0.8695652E-01  0.0000000E+00  0.8333333E-02
    1      -51.885495    -51.880706   1.000000   1.000000
    2      -51.821331    -51.816845   1.000000   1.000000
    3      -51.821296    -51.816816   1.000000   1.000000
    4      -46.837703    -46.842409   1.000000   1.000000
    5      -46.790370    -46.794872   1.000000   1.000000
    6      -46.790349    -46.794841   1.000000   1.000000
    7      -16.022353    -16.021809   1.000000   1.000000
    8      -16.012402    -16.013482   1.000000   1.000000
    9      -16.000661    -15.999463   1.000000   1.000000
   10      -15.992041    -15.992732   1.000000   1.000000
   11      -15.958805    -15.958316   1.000000   1.000000
   12      -15.956840    -15.957465   1.000000   1.000000
   13      -15.945428    -15.946077   1.000000   1.000000
   14      -15.945363    -15.944431   1.000000   1.000000
   15      -15.935172    -15.935396   1.000000   1.000000
   16      -15.930080    -15.929972   1.000000   1.000000
   17      -11.704556    -11.700015   1.000000   1.000000
   18      -11.549382    -11.554104   1.000000   1.000000
   19      -10.740439    -10.744289   1.000000   1.000000
   20      -10.652801    -10.640768   1.000000   1.000000
   21      -10.562980    -10.576526   1.000000   1.000000
   22      -10.482883    -10.476435   1.000000   1.000000
   23       -3.628980     -3.622995   1.000000   1.000000
   24       -3.513325     -3.518221   1.000000   1.000000
   25       -2.924936     -2.927234   1.000000   1.000000
   26       -2.844130     -2.831847   1.000000   1.000000
   27       -2.761750     -2.761996   1.000000   1.000000
   28       -2.543438     -2.540029   1.000000   1.000000
   29       -2.379509     -2.375268   1.000000   1.000000
   30        1.036717      1.063772   1.000000   1.000000
   31        1.335481      1.336689   1.000000   1.000000
   32        1.745542      1.805372   1.000000   1.000000
   33        2.085876      2.031650   1.000000   1.000000
   34        2.465580      2.335339   1.000000   1.000000
   35        2.551569      2.583909   1.000000   1.000000
   36        2.875416      2.864320   1.000000   1.000000
   37        3.152651      3.241720   1.000000   1.000000
   38        3.671134      3.635972   1.000000   1.000000
   39        4.055874      4.096901   1.000000   1.000000
   40        4.322328      4.286593   1.000000   1.000000
   41        4.473451      4.493030   1.000000   1.000000
   42        4.647465      4.651741   1.000000   1.000000
   43        4.758607      4.752125   1.000000   1.000000
   44        4.898590      4.919048   1.000000   1.000000
   45        5.119597      5.130175   1.000000   1.000000
   46        5.508860      5.511174   1.000000   1.000000
   47        5.750068      5.710812   1.000000   1.000000
   48        9.009864      8.991622   0.000000   0.000000
   49        9.290918      9.293019   0.000000   0.000000
   50        9.429027      9.404867   0.000000   0.000000
   51        9.473597      9.487611   0.000000   0.000000
   52        9.556019      9.586107   0.000000   0.000000
   53        9.977208     10.013133   0.000000   0.000000
   54       10.240844     10.206592   0.000000   0.000000
   55       11.122637     11.084707   0.000000   0.000000
   56       11.420129     11.439078   0.000000   0.000000
 
  0.5000000E+00  0.1086957E+00  0.0000000E+00  0.8333333E-02
    1      -51.885495    -51.880706   1.000000   1.000000
    2      -51.821331    -51.816847   1.000000   1.000000
    3      -51.821298    -51.816816   1.000000   1.000000
    4      -46.837703    -46.842409   1.000000   1.000000
    5      -46.790372    -46.794873   1.000000   1.000000
    6      -46.790350    -46.794843   1.000000   1.000000
    7      -16.025242    -16.024739   1.000000   1.000000
    8      -16.012590    -16.013623   1.000000   1.000000
    9      -15.999971    -15.998760   1.000000   1.000000
   10      -15.989912    -15.990628   1.000000   1.000000
   11      -15.959343    -15.958922   1.000000   1.000000
   12      -15.956755    -15.957365   1.000000   1.000000
   13      -15.945669    -15.946274   1.000000   1.000000
   14      -15.945301    -15.944311   1.000000   1.000000
   15      -15.935325    -15.935584   1.000000   1.000000
   16      -15.928772    -15.928676   1.000000   1.000000
   17      -11.715425    -11.710088   1.000000   1.000000
   18      -11.525223    -11.531091   1.000000   1.000000
   19      -10.746263    -10.752222   1.000000   1.000000
   20      -10.659344    -10.641542   1.000000   1.000000
   21      -10.570227    -10.588510   1.000000   1.000000
   22      -10.479966    -10.471979   1.000000   1.000000
   23       -3.643783     -3.637077   1.000000   1.000000
   24       -3.501013     -3.507317   1.000000   1.000000
   25       -2.927449     -2.932495   1.000000   1.000000
   26       -2.846567     -2.830433   1.000000   1.000000
   27       -2.764078     -2.766531   1.000000   1.000000
   28       -2.535859     -2.532139   1.000000   1.000000
   29       -2.383214     -2.378545   1.000000   1.000000
   30        1.021282      1.058197   1.000000   1.000000
   31        1.366432      1.373101   1.000000   1.000000
   32        1.734744      1.813658   1.000000   1.000000
   33        2.102820      2.026641   1.000000   1.000000
   34        2.519123      2.334806   1.000000   1.000000
   35        2.556905      2.599551   1.000000   1.000000
   36        2.882933      2.866926   1.000000   1.000000
   37        3.149944      3.282441   1.000000   1.000000
   38        3.676801      3.625948   1.000000   1.000000
   39        4.032711      4.089040   1.000000   1.000000
   40        4.290259      4.249867   1.000000   1.000000
   41        4.471311      4.493032   1.000000   1.000000
   42        4.639184      4.646937   1.000000   1.000000
   43        4.754473      4.742981   1.000000   1.000000
   44        4.884639      4.913087   1.000000   1.000000
   45        5.108661      5.120345   1.000000   1.000000
   46        5.507191      5.515218   1.000000   1.000000
   47        5.762191      5.704265   1.000000   1.000000
   48        9.027605      9.000853   0.000000   0.000000
   49        9.291032      9.295839   0.000000   0.000000
   50        9.421044      9.387439   0.000000   0.000000
   51        9.467305      9.492133   0.000000   0.000000
   52        9.554290      9.596528   0.000000   0.000000
   53        9.964748     10.026385   0.000000   0.000000
   54       10.254917     10.195636   0.000000   0.000000
   55       11.092522     11.047963   0.000000   0.000000
   56       11.437162     11.455776   0.000000   0.000000
 
  0.5000000E+00  0.1304348E+00  0.0000000E+00  0.8333333E-02
    1      -51.885495    -51.880706   1.000000   1.000000
    2      -51.821331    -51.816845   1.000000   1.000000
    3      -51.821296    -51.816816   1.000000   1.000000
    4      -46.837703    -46.842409   1.000000   1.000000
    5      -46.790370    -46.794872   1.000000   1.000000
    6      -46.790350    -46.794841   1.000000   1.000000
    7      -16.028214    -16.027750   1.000000   1.000000
    8      -16.012805    -16.013752   1.000000   1.000000
    9      -15.999113    -15.997935   1.000000   1.000000
   10      -15.987896    -15.988626   1.000000   1.000000
   11      -15.959934    -15.959586   1.000000   1.000000
   12      -15.956649    -15.957237   1.000000   1.000000
   13      -15.945968    -15.946480   1.000000   1.000000
   14      -15.945175    -15.944192   1.000000   1.000000
   15      -15.935430    -15.935712   1.000000   1.000000
   16      -15.927337    -15.927252   1.000000   1.000000
   17      -11.724695    -11.718690   1.000000   1.000000
   18      -11.499945    -11.506909   1.000000   1.000000
   19      -10.753711    -10.761505   1.000000   1.000000
   20      -10.666630    -10.643035   1.000000   1.000000
   21      -10.578367    -10.601120   1.000000   1.000000
   22      -10.476957    -10.467920   1.000000   1.000000
   23       -3.659284     -3.652132   1.000000   1.000000
   24       -3.488730     -3.496183   1.000000   1.000000
   25       -2.929759     -2.937739   1.000000   1.000000
   26       -2.849398     -2.829274   1.000000   1.000000
   27       -2.766199     -2.770928   1.000000   1.000000
   28       -2.528118     -2.523926   1.000000   1.000000
   29       -2.387622     -2.382595   1.000000   1.000000
   30        1.007442      1.053563   1.000000   1.000000
   31        1.398810      1.414475   1.000000   1.000000
   32        1.729357      1.823586   1.000000   1.000000
   33        2.120385      2.021635   1.000000   1.000000
   34        2.540326      2.335593   1.000000   1.000000
   35        2.599850      2.617435   1.000000   1.000000
   36        2.891947      2.871110   1.000000   1.000000
   37        3.147663      3.326786   1.000000   1.000000
   38        3.683948      3.617530   1.000000   1.000000
   39        4.008105      4.077712   1.000000   1.000000
   40        4.251539      4.210675   1.000000   1.000000
   41        4.467063      4.489319   1.000000   1.000000
   42        4.625888      4.636973   1.000000   1.000000
   43        4.751005      4.735438   1.000000   1.000000
   44        4.872324      4.908521   1.000000   1.000000
   45        5.096330      5.105528   1.000000   1.000000
   46        5.502615      5.519063   1.000000   1.000000
   47        5.775414      5.698569   1.000000   1.000000
   48        9.046842      9.010082   0.000000   0.000000
   49        9.290968      9.299062   0.000000   0.000000
   50        9.411759      9.367692   0.000000   0.000000
   51        9.458903      9.496818   0.000000   0.000000
   52        9.554991      9.607864   0.000000   0.000000
   53        9.946788     10.041409   0.000000   0.000000
   54       10.273511     10.181278   0.000000   0.000000
   55       11.066220     11.018793   0.000000   0.000000
   56       11.447476     11.463098   0.000000   0.000000
 
  0.5000000E+00  0.1521739E+00  0.0000000E+00  0.8333333E-02
    1      -51.885496    -51.880707   1.000000   1.000000
    2      -51.821331    -51.816844   1.000000   1.000000
    3      -51.821295    -51.816815   1.000000   1.000000
    4      -46.837704    -46.842410   1.000000   1.000000
    5      -46.790369    -46.794872   1.000000   1.000000
    6      -46.790350    -46.794840   1.000000   1.000000
    7      -16.031214    -16.030788   1.000000   1.000000
    8      -16.013020    -16.013869   1.000000   1.000000
    9      -15.998137    -15.997014   1.000000   1.000000
   10      -15.986044    -15.986781   1.000000   1.000000
   11      -15.960548    -15.960271   1.000000   1.000000
   12      -15.956530    -15.957091   1.000000   1.000000
   13      -15.946266    -15.946693   1.000000   1.000000
   14      -15.945058    -15.944096   1.000000   1.000000
   15      -15.935489    -15.935782   1.000000   1.000000
   16      -15.925817    -15.925742   1.000000   1.000000
   17      -11.732361    -11.725815   1.000000   1.000000
   18      -11.473779    -11.481764   1.000000   1.000000
   19      -10.762922    -10.772033   1.000000   1.000000
   20      -10.674520    -10.645926   1.000000   1.000000
   21      -10.587100    -10.613515   1.000000   1.000000
   22      -10.474058    -10.464444   1.000000   1.000000
   23       -3.675426     -3.668085   1.000000   1.000000
   24       -3.476630     -3.484929   1.000000   1.000000
   25       -2.931529     -2.942542   1.000000   1.000000
   26       -2.852478     -2.828523   1.000000   1.000000
   27       -2.768000     -2.774796   1.000000   1.000000
   28       -2.520821     -2.515934   1.000000   1.000000
   29       -2.392618     -2.387398   1.000000   1.000000
   30        0.995746      1.049833   1.000000   1.000000
   31        1.431739      1.460349   1.000000   1.000000
   32        1.730692      1.834931   1.000000   1.000000
   33        2.138031      2.017208   1.000000   1.000000
   34        2.542631      2.337848   1.000000   1.000000
   35        2.664396      2.637435   1.000000   1.000000
   36        2.902355      2.877030   1.000000   1.000000
   37        3.145953      3.370814   1.000000   1.000000
   38        3.692876      3.613834   1.000000   1.000000
   39        3.983039      4.062043   1.000000   1.000000
   40        4.207817      4.170367   1.000000   1.000000
   41        4.459995      4.481158   1.000000   1.000000
   42        4.607613      4.621478   1.000000   1.000000
   43        4.747754      4.731366   1.000000   1.000000
   44        4.861929      4.905186   1.000000   1.000000
   45        5.083673      5.085416   1.000000   1.000000
   46        5.495244      5.521984   1.000000   1.000000
   47        5.788510      5.694636   1.000000   1.000000
   48        9.065539      9.017991   0.000000   0.000000
   49        9.290246      9.301935   0.000000   0.000000
   50        9.402769      9.347255   0.000000   0.000000
   51        9.449028      9.501317   0.000000   0.000000
   52        9.558088      9.619599   0.000000   0.000000
   53        9.923866     10.054615   0.000000   0.000000
   54       10.295647     10.166664   0.000000   0.000000
   55       11.044416     10.998082   0.000000   0.000000
   56       11.452852     11.463145   0.000000   0.000000
 
  0.5000000E+00  0.1739130E+00  0.0000000E+00  0.8333333E-02
    1      -51.885495    -51.880706   1.000000   1.000000
    2      -51.821330    -51.816843   1.000000   1.000000
    3      -51.821294    -51.816814   1.000000   1.000000
    4      -46.837703    -46.842409   1.000000   1.000000
    5      -46.790367    -46.794871   1.000000   1.000000
    6      -46.790348    -46.794839   1.000000   1.000000
    7      -16.034194    -16.033803   1.000000   1.000000
    8      -16.013215    -16.013963   1.000000   1.000000
    9      -15.997076    -15.996017   1.000000   1.000000
   10      -15.984388    -15.985124   1.000000   1.000000
   11      -15.961157    -15.960947   1.000000   1.000000
   12      -15.956394    -15.956924   1.000000   1.000000
   13      -15.946556    -15.946907   1.000000   1.000000
   14      -15.944965    -15.944038   1.000000   1.000000
   15      -15.935502    -15.935794   1.000000   1.000000
   16      -15.924220    -15.924154   1.000000   1.000000
   17      -11.738382    -11.731436   1.000000   1.000000
   18      -11.446931    -11.455853   1.000000   1.000000
   19      -10.773882    -10.783663   1.000000   1.000000
   20      -10.682903    -10.651553   1.000000   1.000000
   21      -10.596026    -10.624090   1.000000   1.000000
   22      -10.471376    -10.461559   1.000000   1.000000
   23       -3.692133     -3.684832   1.000000   1.000000
   24       -3.464855     -3.473659   1.000000   1.000000
   25       -2.932423     -2.946513   1.000000   1.000000
   26       -2.855613     -2.828252   1.000000   1.000000
   27       -2.769454     -2.777838   1.000000   1.000000
   28       -2.514555     -2.508690   1.000000   1.000000
   29       -2.397994     -2.392859   1.000000   1.000000
   30        0.986482      1.046796   1.000000   1.000000
   31        1.464645      1.510420   1.000000   1.000000
   32        1.739502      1.847335   1.000000   1.000000
   33        2.155068      2.014028   1.000000   1.000000
   34        2.544434      2.341534   1.000000   1.000000
   35        2.730040      2.659574   1.000000   1.000000
   36        2.914058      2.884728   1.000000   1.000000
   37        3.144688      3.408673   1.000000   1.000000
   38        3.703904      3.619639   1.000000   1.000000
   39        3.958153      4.040711   1.000000   1.000000
   40        4.161144      4.130859   1.000000   1.000000
   41        4.449709      4.467234   1.000000   1.000000
   42        4.585480      4.603227   1.000000   1.000000
   43        4.743321      4.730326   1.000000   1.000000
   44        4.853341      4.902653   1.000000   1.000000
   45        5.071819      5.060309   1.000000   1.000000
   46        5.485528      5.523240   1.000000   1.000000
   47        5.800316      5.693128   1.000000   1.000000
   48        9.080598      9.022915   0.000000   0.000000
   49        9.288748      9.300882   0.000000   0.000000
   50        9.396367      9.331022   0.000000   0.000000
   51        9.438474      9.505330   0.000000   0.000000
   52        9.563287      9.631313   0.000000   0.000000
   53        9.897143     10.056826   0.000000   0.000000
   54       10.319898     10.161150   0.000000   0.000000
   55       11.026486     10.985276   0.000000   0.000000
   56       11.451760     11.456599   0.000000   0.000000
 