 vasp.5.4.1 24Jun15 (build Jul 08 2015 18:11:14) complex                        
  
 executed on           IFC91_ompi date 2016.01.20  03:32:10
 running on    4 total cores
 distrk:  each k-point on    4 cores,    1 groups
 distr:  one band on NCORES_PER_BAND=   1 cores,    4 groups


--------------------------------------------------------------------------------------------------------


 INCAR:
 POTCAR:    PAW_PBE Bi_d 06Sep2000                
 POTCAR:    PAW_PBE O 08Apr2002                   
 POTCAR:    PAW_PBE Fe_pv 02Aug2007               
 POTCAR:    PAW_PBE Bi_d 06Sep2000                
   VRHFIN =Bi:                                                                  
   LEXCH  = PE                                                                  
   EATOM  =  1959.2045 eV,  143.9975 Ry                                         
                                                                                
   TITEL  = PAW_PBE Bi_d 06Sep2000                                              
   LULTRA =        F    use ultrasoft PP ?                                      
   IUNSCR =        1    unscreen: 0-lin 1-nonlin 2-no                           
   RPACOR =    2.200    partial core radius                                     
   POMASS =  208.980; ZVAL   =   15.000    mass and valenz                      
   RCORE  =    2.500    outmost cutoff radius                                   
   RWIGS  =    3.090; RWIGS  =    1.635    wigner-seitz radius (au A)           
   ENMAX  =  242.839; ENMIN  =  182.129 eV                                      
   ICORE  =        3    local potential                                         
   LCOR   =        T    correct aug charges                                     
   LPAW   =        T    paw PP                                                  
   EAUG   =  442.899                                                            
   DEXC   =    0.000                                                            
   RMAX   =    2.551    core radius for proj-oper                               
   RAUG   =    1.300    factor for augmentation sphere                          
   RDEP   =    2.650    radius for radial grids                                 
   RDEPT  =    2.039    core radius for aug-charge                              
                                                                                
   Atomic configuration                                                         
   16 entries                                                                   
     n  l   j            E        occ.                                          
     1  0  0.50    -90639.6581   2.0000                                         
     2  0  0.50    -16282.4666   2.0000                                         
     2  1  1.50    -13922.8286   6.0000                                         
     3  0  0.50     -3930.4763   2.0000                                         
     3  1  1.50     -3256.7013   6.0000                                         
     3  2  2.50     -2581.6168  10.0000                                         
     4  0  0.50      -902.2614   2.0000                                         
     4  1  1.50      -681.5915   6.0000                                         
     4  2  2.50      -429.8249  10.0000                                         
     4  3  3.50      -152.6004  14.0000                                         
     5  0  0.50      -157.7156   2.0000                                         
     5  1  1.50       -95.8054   6.0000                                         
     5  2  2.50       -27.0806  10.0000                                         
     6  0  0.50       -14.4732   2.0000                                         
     6  1  1.50        -4.5702   3.0000                                         
     5  3  2.50        -2.7212   0.0000                                         
   Description                                                                  
     l       E           TYP  RCUT    TYP  RCUT                                 
     2    -27.0805982     23  2.500                                             
     2     -1.3605826     23  2.500                                             
     0    -14.4732271     23  2.500                                             
     0      6.8029130     23  2.500                                             
     1     -4.5701651     23  2.500                                             
     1     13.6058260     23  2.500                                             
     3     -1.3605826      7  2.500                                             
  local pseudopotential read in
  partial core-charges read in
  partial kinetic energy density read in
  atomic valenz-charges read in
  non local Contribution for L=           2  read in
    real space projection operators read in
  non local Contribution for L=           2  read in
    real space projection operators read in
  non local Contribution for L=           0  read in
    real space projection operators read in
  non local Contribution for L=           0  read in
    real space projection operators read in
  non local Contribution for L=           1  read in
    real space projection operators read in
  non local Contribution for L=           1  read in
    real space projection operators read in
    PAW grid and wavefunctions read in
 
   number of l-projection  operators is LMAX  =           6
   number of lm-projection operators is LMMAX =          18
 
 POTCAR:    PAW_PBE O 08Apr2002                   
   VRHFIN =O: s2p4                                                              
   LEXCH  = PE                                                                  
   EATOM  =   432.3788 eV,   31.7789 Ry                                         
                                                                                
   TITEL  = PAW_PBE O 08Apr2002                                                 
   LULTRA =        F    use ultrasoft PP ?                                      
   IUNSCR =        1    unscreen: 0-lin 1-nonlin 2-no                           
   RPACOR =    1.200    partial core radius                                     
   POMASS =   16.000; ZVAL   =    6.000    mass and valenz                      
   RCORE  =    1.520    outmost cutoff radius                                   
   RWIGS  =    1.550; RWIGS  =    0.820    wigner-seitz radius (au A)           
   ENMAX  =  400.000; ENMIN  =  300.000 eV                                      
   ICORE  =        2    local potential                                         
   LCOR   =        T    correct aug charges                                     
   LPAW   =        T    paw PP                                                  
   EAUG   =  605.392                                                            
   DEXC   =    0.000                                                            
   RMAX   =    1.553    core radius for proj-oper                               
   RAUG   =    1.300    factor for augmentation sphere                          
   RDEP   =    1.550    radius for radial grids                                 
   RDEPT  =    1.329    core radius for aug-charge                              
                                                                                
   Atomic configuration                                                         
    4 entries                                                                   
     n  l   j            E        occ.                                          
     1  0  0.50      -514.6923   2.0000                                         
     2  0  0.50       -23.9615   2.0000                                         
     2  1  0.50        -9.0305   4.0000                                         
     3  2  1.50        -9.5241   0.0000                                         
   Description                                                                  
     l       E           TYP  RCUT    TYP  RCUT                                 
     0    -23.9615318     23  1.200                                             
     0     -9.5240782     23  1.200                                             
     1     -9.0304911     23  1.520                                             
     1      8.1634956     23  1.520                                             
     2     -9.5240782      7  1.500                                             
  local pseudopotential read in
  partial core-charges read in
  partial kinetic energy density read in
  kinetic energy density of atom read in
  atomic valenz-charges read in
  non local Contribution for L=           0  read in
    real space projection operators read in
  non local Contribution for L=           0  read in
    real space projection operators read in
  non local Contribution for L=           1  read in
    real space projection operators read in
  non local Contribution for L=           1  read in
    real space projection operators read in
    PAW grid and wavefunctions read in
 
   number of l-projection  operators is LMAX  =           4
   number of lm-projection operators is LMMAX =           8
 
 POTCAR:    PAW_PBE Fe_pv 02Aug2007               
   VRHFIN =Fe:  3pd7s1                                                          
   LEXCH  = PE                                                                  
   EATOM  =  2457.4239 eV,  180.6156 Ry                                         
                                                                                
   TITEL  = PAW_PBE Fe_pv 02Aug2007                                             
   LULTRA =        F    use ultrasoft PP ?                                      
   IUNSCR =        1    unscreen: 0-lin 1-nonlin 2-no                           
   RPACOR =    1.750    partial core radius                                     
   POMASS =   55.847; ZVAL   =   14.000    mass and valenz                      
   RCORE  =    2.200    outmost cutoff radius                                   
   RWIGS  =    2.200; RWIGS  =    1.164    wigner-seitz radius (au A)           
   ENMAX  =  293.238; ENMIN  =  219.928 eV                                      
   ICORE  =        3    local potential                                         
   LCOR   =        T    correct aug charges                                     
   LPAW   =        T    paw PP                                                  
   EAUG   =  578.342                                                            
   DEXC   =    0.000                                                            
   RMAX   =    2.249    core radius for proj-oper                               
   RAUG   =    1.300    factor for augmentation sphere                          
   RDEP   =    2.296    radius for radial grids                                 
   RDEPT  =    1.766    core radius for aug-charge                              
                                                                                
   Atomic configuration                                                         
    8 entries                                                                   
     n  l   j            E        occ.                                          
     1  0  0.50     -6993.8440   2.0000                                         
     2  0  0.50      -814.6047   2.0000                                         
     2  1  1.50      -693.3689   6.0000                                         
     3  0  0.50       -89.4732   2.0000                                         
     3  1  1.50       -55.6373   6.0000                                         
     3  2  2.50        -3.8151   7.0000                                         
     4  0  0.50        -4.2551   1.0000                                         
     4  3  2.50        -1.3606   0.0000                                         
   Description                                                                  
     l       E           TYP  RCUT    TYP  RCUT                                 
     1    -55.6372668     23  2.000                                             
     1     -5.4423304     23  2.000                                             
     2     -3.8151096     23  2.200                                             
     2     -5.1756922     23  2.200                                             
     0     -4.2550951     23  2.200                                             
     0     27.2116520     23  2.200                                             
     3     -1.3605826     23  2.200                                             
  local pseudopotential read in
  partial core-charges read in
  partial kinetic energy density read in
  atomic valenz-charges read in
  non local Contribution for L=           1  read in
    real space projection operators read in
  non local Contribution for L=           1  read in
    real space projection operators read in
  non local Contribution for L=           2  read in
    real space projection operators read in
  non local Contribution for L=           2  read in
    real space projection operators read in
  non local Contribution for L=           0  read in
    real space projection operators read in
  non local Contribution for L=           0  read in
    real space projection operators read in
    PAW grid and wavefunctions read in
 
   number of l-projection  operators is LMAX  =           6
   number of lm-projection operators is LMMAX =          18
 

 ----------------------------------------------------------------------------- 
|                                                                             |
|  ADVICE TO THIS USER RUNNING 'VASP/VAMP'   (HEAR YOUR MASTER'S VOICE ...):  |
|                                                                             |
|      You enforced a specific xc-type in the INCAR file,                     |
|      a different type was found on the POTCAR file                          |
|          I HOPE YOU KNOW, WHAT YOU ARE  DOING                               |
|                                                                             |
 ----------------------------------------------------------------------------- 

  PAW_PBE Bi_d 06Sep2000                :
 energy of atom  1       EATOM=-1959.2045
 kinetic energy error for atom=    0.0040 (will be added to EATOM!!)
  PAW_PBE O 08Apr2002                   :
 energy of atom  2       EATOM= -432.3788
 kinetic energy error for atom=    0.0208 (will be added to EATOM!!)
  PAW_PBE Fe_pv 02Aug2007               :
 energy of atom  3       EATOM=-2457.4239
 kinetic energy error for atom=    0.0062 (will be added to EATOM!!)
 
 
 POSCAR: Bi    O   Fe                            
  positions in direct lattice
  velocities in cartesian coordinates
 exchange correlation table for  LEXCH =       14
   RHO(1)=    0.500       N(1)  =     2000
   RHO(2)=  100.500       N(2)  =     4000
 


--------------------------------------------------------------------------------------------------------


 ion  position               nearest neighbor table
   1  0.276  0.276  0.276-   6 2.33   7 2.33   8 2.33   5 2.45   3 2.45   4 2.45   9 3.07  10 3.30
                            10 3.30  10 3.30
   2  0.776  0.776  0.776-   3 2.33   4 2.33   5 2.33   8 2.45   6 2.45   7 2.45  10 3.07   9 3.30
                             9 3.30   9 3.30
   3  0.672  0.217  0.814-   9 1.97  10 2.08   2 2.33   1 2.45
   4  0.217  0.814  0.672-   9 1.97  10 2.08   2 2.33   1 2.45
   5  0.814  0.672  0.217-   9 1.97  10 2.08   2 2.33   1 2.45
   6  0.314  0.717  0.172-  10 1.97   9 2.08   1 2.33   2 2.45
   7  0.172  0.314  0.717-  10 1.97   9 2.08   1 2.33   2 2.45
   8  0.717  0.172  0.314-  10 1.97   9 2.08   1 2.33   2 2.45
   9  0.499  0.499  0.499-   5 1.97   4 1.97   3 1.97   6 2.08   8 2.08   7 2.08   1 3.07   2 3.30
                             2 3.30   2 3.30
  10  0.999  0.999  0.999-   7 1.97   8 1.97   6 1.97   5 2.08   3 2.08   4 2.08   2 3.07   1 3.30
                             1 3.30   1 3.30
 
  LATTYP: Found a trigonal (rhomboedric) cell.
 ALAT       =     5.5998550032
 COS(alpha) =     0.5079921576
  
  Lattice vectors:
  
 A1 = (   5.5998023270,  -0.0198779705,  -0.0139578483)
 A2 = (   2.8617607071,   4.8133675209,  -0.0139578483)
 A3 = (   2.8617607071,   1.6211922064,   4.5321559486)


Analysis of symmetry for initial positions (statically):
=====================================================================
 Subroutine PRICEL returns:
 Original cell was already a primitive cell.
 

 Routine SETGRP: Setting up the symmetry group for a 
 trigonal (rhombohedral) supercell.


 Subroutine GETGRP returns: Found  3 space group operations
 (whereof  3 operations were pure point group operations)
 out of a pool of 12 trial point group operations.


The static configuration has the point symmetry C_3 .


Analysis of symmetry for dynamics (positions and initial velocities):
=====================================================================
 Subroutine PRICEL returns:
 Original cell was already a primitive cell.
 

 Routine SETGRP: Setting up the symmetry group for a 
 trigonal (rhombohedral) supercell.


 Subroutine GETGRP returns: Found  3 space group operations
 (whereof  3 operations were pure point group operations)
 out of a pool of 12 trial point group operations.


The dynamic configuration has the point symmetry C_3 .


Analysis of magnetic symmetry:
=====================================================================
 Subroutine PRICEL returns:
 Original cell was already a primitive cell.
 

 Subroutine MAGSYM returns: Found  3 space group operations
 (whereof  3 operations were pure point group operations)
 out of a pool of  3 trial space group operations
 (whereof  3 operations were pure point group operations)
 and found also     1 'primitive' translations


The magnetic configuration has the point symmetry C_3 .
 
 
 KPOINTS: Gamma centred mesh                      

Automatic generation of k-mesh.
Space group operators:
 irot       det(A)        alpha          n_x          n_y          n_z        tau_x        tau_y        tau_z
    1     1.000000     0.000002     1.000000     0.000000     0.000000     0.000000     0.000000     0.000000
    2     1.000000   120.000000    -0.822229    -0.465794    -0.327070     0.000000     0.000000     0.000000
    3     1.000000   120.000000     0.822229     0.465794     0.327070     0.000000     0.000000     0.000000
 
 Subroutine IBZKPT returns following result:
 ===========================================
 
 Found     90 irreducible k-points:
 
 Following reciprocal coordinates:
            Coordinates               Weight
  0.000000  0.000000  0.000000      1.000000
  0.125000  0.000000  0.000000      6.000000
  0.250000  0.000000  0.000000      6.000000
  0.375000 -0.000000  0.000000      6.000000
  0.500000  0.000000  0.000000      3.000000
  0.125000  0.125000  0.000000      6.000000
  0.250000  0.125000  0.000000      6.000000
  0.375000  0.125000  0.000000      6.000000
  0.500000  0.125000  0.000000      6.000000
 -0.375000  0.125000 -0.000000      6.000000
 -0.250000  0.125000 -0.000000      6.000000
 -0.125000  0.125000 -0.000000      6.000000
  0.125000  0.250000  0.000000      6.000000
  0.250000  0.250000  0.000000      6.000000
  0.375000  0.250000  0.000000      6.000000
  0.500000  0.250000  0.000000      6.000000
 -0.375000  0.250000 -0.000000      6.000000
 -0.250000  0.250000 -0.000000      6.000000
 -0.125000  0.250000 -0.000000      6.000000
  0.125000  0.375000  0.000000      6.000000
  0.250000  0.375000  0.000000      6.000000
  0.375000  0.375000  0.000000      6.000000
  0.500000  0.375000  0.000000      6.000000
 -0.375000  0.375000 -0.000000      6.000000
 -0.250000  0.375000 -0.000000      6.000000
 -0.125000  0.375000 -0.000000      6.000000
  0.125000  0.500000 -0.000000      6.000000
  0.250000  0.500000  0.000000      6.000000
  0.375000  0.500000  0.000000      6.000000
  0.500000  0.500000  0.000000      3.000000
  0.125000  0.125000  0.125000      2.000000
  0.250000  0.125000  0.125000      6.000000
  0.375000  0.125000  0.125000      6.000000
  0.500000  0.125000  0.125000      6.000000
 -0.375000  0.125000  0.125000      6.000000
 -0.250000  0.125000  0.125000      6.000000
 -0.125000  0.125000  0.125000      6.000000
  0.250000  0.250000  0.125000      6.000000
  0.375000  0.250000  0.125000      6.000000
  0.500000  0.250000  0.125000      6.000000
 -0.375000  0.250000  0.125000      6.000000
 -0.250000  0.250000  0.125000      6.000000
 -0.125000  0.250000  0.125000      6.000000
  0.250000  0.375000  0.125000      6.000000
  0.375000  0.375000  0.125000      6.000000
  0.500000  0.375000  0.125000      6.000000
 -0.375000  0.375000  0.125000      6.000000
 -0.250000  0.375000  0.125000      6.000000
 -0.125000  0.375000  0.125000      6.000000
  0.250000  0.500000  0.125000      6.000000
  0.375000  0.500000  0.125000      6.000000
  0.500000  0.500000  0.125000      6.000000
 -0.375000  0.500000  0.125000      6.000000
 -0.250000  0.500000  0.125000      6.000000
 -0.125000  0.500000  0.125000      6.000000
  0.250000 -0.375000  0.125000      6.000000
  0.375000 -0.375000  0.125000      6.000000
  0.500000 -0.375000  0.125000      6.000000
 -0.375000 -0.375000  0.125000      6.000000
 -0.250000 -0.375000  0.125000      6.000000
 -0.125000 -0.375000  0.125000      6.000000
  0.250000 -0.250000  0.125000      6.000000
  0.375000 -0.250000  0.125000      6.000000
  0.500000 -0.250000  0.125000      6.000000
 -0.375000 -0.250000  0.125000      6.000000
 -0.250000 -0.250000  0.125000      6.000000
 -0.125000 -0.250000  0.125000      6.000000
  0.250000  0.250000  0.250000      2.000000
  0.375000  0.250000  0.250000      6.000000
  0.500000  0.250000  0.250000      6.000000
 -0.375000  0.250000  0.250000      6.000000
 -0.250000  0.250000  0.250000      6.000000
  0.375000  0.375000  0.250000      6.000000
  0.500000  0.375000  0.250000      6.000000
 -0.375000  0.375000  0.250000      6.000000
 -0.250000  0.375000  0.250000      6.000000
  0.375000  0.500000  0.250000      6.000000
  0.500000  0.500000  0.250000      6.000000
 -0.375000  0.500000  0.250000      6.000000
 -0.250000  0.500000  0.250000      6.000000
  0.375000 -0.375000  0.250000      6.000000
  0.500000 -0.375000  0.250000      6.000000
 -0.375000 -0.375000  0.250000      6.000000
 -0.250000 -0.375000  0.250000      6.000000
  0.375000  0.375000  0.375000      2.000000
  0.500000  0.375000  0.375000      6.000000
 -0.375000  0.375000  0.375000      6.000000
  0.500000  0.500000  0.375000      6.000000
 -0.375000  0.500000  0.375000      6.000000
  0.500000  0.500000  0.500000      1.000000
 
 Following cartesian coordinates:
            Coordinates               Weight
  0.000000  0.000000  0.000000      1.000000
  0.022252 -0.013257 -0.009309      6.000000
  0.044504 -0.026514 -0.018617      6.000000
  0.066756 -0.039770 -0.027926      6.000000
  0.089008 -0.053027 -0.037234      3.000000
  0.022321  0.012645 -0.018617      6.000000
  0.044573 -0.000612 -0.027926      6.000000
  0.066825 -0.013869 -0.037234      6.000000
  0.089077 -0.027126 -0.046543      6.000000
 -0.066687  0.065672  0.018617      6.000000
 -0.044435  0.052415  0.009309      6.000000
 -0.022183  0.039158  0.000000      6.000000
  0.022389  0.038546 -0.027926      6.000000
  0.044641  0.025289 -0.037234      6.000000
  0.066893  0.012033 -0.046543      6.000000
  0.089145 -0.001224 -0.055852      6.000000
 -0.066618  0.091573  0.009309      6.000000
 -0.044366  0.078317  0.000000      6.000000
 -0.022114  0.065060 -0.009309      6.000000
  0.022458  0.064448 -0.037234      6.000000
  0.044710  0.051191 -0.046543      6.000000
  0.066962  0.037934 -0.055852      6.000000
  0.089214  0.024677 -0.065160      6.000000
 -0.066550  0.117475  0.000000      6.000000
 -0.044298  0.104218 -0.009309      6.000000
 -0.022046  0.090961 -0.018617      6.000000
  0.022527  0.090349 -0.046543      6.000000
  0.044779  0.077092 -0.055852      6.000000
  0.067031  0.063836 -0.065160      6.000000
  0.089283  0.050579 -0.074469      3.000000
  0.022389  0.012684  0.008906      2.000000
  0.044641 -0.000573 -0.000402      6.000000
  0.066893 -0.013830 -0.009711      6.000000
  0.089145 -0.027087 -0.019020      6.000000
 -0.066618  0.065711  0.046141      6.000000
 -0.044366  0.052454  0.036832      6.000000
 -0.022114  0.039197  0.027523      6.000000
  0.044710  0.025328 -0.009711      6.000000
  0.066962  0.012072 -0.019020      6.000000
  0.089214 -0.001185 -0.028328      6.000000
 -0.066550  0.091612  0.036832      6.000000
 -0.044298  0.078355  0.027523      6.000000
 -0.022046  0.065099  0.018215      6.000000
  0.044779  0.051230 -0.019020      6.000000
  0.067031  0.037973 -0.028328      6.000000
  0.089283  0.024716 -0.037637      6.000000
 -0.066481  0.117514  0.027523      6.000000
 -0.044229  0.104257  0.018215      6.000000
 -0.021977  0.091000  0.008906      6.000000
  0.044848  0.077131 -0.028328      6.000000
  0.067100  0.063875 -0.037637      6.000000
  0.089352  0.050618 -0.046945      6.000000
 -0.066412  0.143415  0.018215      6.000000
 -0.044160  0.130158  0.008906      6.000000
 -0.021908  0.116902 -0.000402      6.000000
  0.044366 -0.104179  0.036832      6.000000
  0.066618 -0.117436  0.027523      6.000000
  0.088870 -0.130693  0.018215      6.000000
 -0.066893 -0.037895  0.083375      6.000000
 -0.044641 -0.051152  0.074066      6.000000
 -0.022389 -0.064409  0.064758      6.000000
  0.044435 -0.078278  0.027523      6.000000
  0.066687 -0.091534  0.018215      6.000000
  0.088939 -0.104791  0.008906      6.000000
 -0.066825 -0.011994  0.074066      6.000000
 -0.044573 -0.025250  0.064758      6.000000
 -0.022321 -0.038507  0.055449      6.000000
  0.044779  0.025367  0.017812      2.000000
  0.067031  0.012111  0.008504      6.000000
  0.089283 -0.001146 -0.000805      6.000000
 -0.066481  0.091651  0.064355      6.000000
 -0.044229  0.078394  0.055047      6.000000
  0.067100  0.038012 -0.000805      6.000000
  0.089352  0.024755 -0.010113      6.000000
 -0.066412  0.117553  0.055047      6.000000
 -0.044160  0.104296  0.045738      6.000000
  0.067168  0.063914 -0.010113      6.000000
  0.089420  0.050657 -0.019422      6.000000
 -0.066343  0.143454  0.045738      6.000000
 -0.044091  0.130197  0.036430      6.000000
  0.066687 -0.117397  0.055047      6.000000
  0.088939 -0.130654  0.045738      6.000000
 -0.066825 -0.037856  0.110898      6.000000
 -0.044573 -0.051113  0.101590      6.000000
  0.067168  0.038051  0.026719      2.000000
  0.089420  0.024794  0.017410      6.000000
 -0.066343  0.117592  0.082570      6.000000
  0.089489  0.050696  0.008101      6.000000
 -0.066275  0.143493  0.073261      6.000000
  0.089558  0.050735  0.035625      1.000000
 
 
 Subroutine IBZKPT_HF returns following result:
 ==============================================
 
 Found    512 k-points in 1st BZ
 the following    512 k-points will be used (e.g. in the exchange kernel)
 Following reciprocal coordinates:   # in IRBZ
  0.000000  0.000000  0.000000    0.00195312   1 t-inv F
  0.125000  0.000000  0.000000    0.00195312   2 t-inv F
  0.250000  0.000000  0.000000    0.00195312   3 t-inv F
  0.375000 -0.000000  0.000000    0.00195312   4 t-inv F
  0.500000  0.000000  0.000000    0.00195312   5 t-inv F
  0.125000  0.125000  0.000000    0.00195312   6 t-inv F
  0.250000  0.125000  0.000000    0.00195312   7 t-inv F
  0.375000  0.125000  0.000000    0.00195312   8 t-inv F
  0.500000  0.125000  0.000000    0.00195312   9 t-inv F
 -0.375000  0.125000 -0.000000    0.00195312  10 t-inv F
 -0.250000  0.125000 -0.000000    0.00195312  11 t-inv F
 -0.125000  0.125000 -0.000000    0.00195312  12 t-inv F
  0.125000  0.250000  0.000000    0.00195312  13 t-inv F
  0.250000  0.250000  0.000000    0.00195312  14 t-inv F
  0.375000  0.250000  0.000000    0.00195312  15 t-inv F
  0.500000  0.250000  0.000000    0.00195312  16 t-inv F
 -0.375000  0.250000 -0.000000    0.00195312  17 t-inv F
 -0.250000  0.250000 -0.000000    0.00195312  18 t-inv F
 -0.125000  0.250000 -0.000000    0.00195312  19 t-inv F
  0.125000  0.375000  0.000000    0.00195312  20 t-inv F
  0.250000  0.375000  0.000000    0.00195312  21 t-inv F
  0.375000  0.375000  0.000000    0.00195312  22 t-inv F
  0.500000  0.375000  0.000000    0.00195312  23 t-inv F
 -0.375000  0.375000 -0.000000    0.00195312  24 t-inv F
 -0.250000  0.375000 -0.000000    0.00195312  25 t-inv F
 -0.125000  0.375000 -0.000000    0.00195312  26 t-inv F
  0.125000  0.500000 -0.000000    0.00195312  27 t-inv F
  0.250000  0.500000  0.000000    0.00195312  28 t-inv F
  0.375000  0.500000  0.000000    0.00195312  29 t-inv F
  0.500000  0.500000  0.000000    0.00195312  30 t-inv F
  0.125000  0.125000  0.125000    0.00195312  31 t-inv F
  0.250000  0.125000  0.125000    0.00195312  32 t-inv F
  0.375000  0.125000  0.125000    0.00195312  33 t-inv F
  0.500000  0.125000  0.125000    0.00195312  34 t-inv F
 -0.375000  0.125000  0.125000    0.00195312  35 t-inv F
 -0.250000  0.125000  0.125000    0.00195312  36 t-inv F
 -0.125000  0.125000  0.125000    0.00195312  37 t-inv F
  0.250000  0.250000  0.125000    0.00195312  38 t-inv F
  0.375000  0.250000  0.125000    0.00195312  39 t-inv F
  0.500000  0.250000  0.125000    0.00195312  40 t-inv F
 -0.375000  0.250000  0.125000    0.00195312  41 t-inv F
 -0.250000  0.250000  0.125000    0.00195312  42 t-inv F
 -0.125000  0.250000  0.125000    0.00195312  43 t-inv F
  0.250000  0.375000  0.125000    0.00195312  44 t-inv F
  0.375000  0.375000  0.125000    0.00195312  45 t-inv F
  0.500000  0.375000  0.125000    0.00195312  46 t-inv F
 -0.375000  0.375000  0.125000    0.00195312  47 t-inv F
 -0.250000  0.375000  0.125000    0.00195312  48 t-inv F
 -0.125000  0.375000  0.125000    0.00195312  49 t-inv F
  0.250000  0.500000  0.125000    0.00195312  50 t-inv F
  0.375000  0.500000  0.125000    0.00195312  51 t-inv F
  0.500000  0.500000  0.125000    0.00195312  52 t-inv F
 -0.375000  0.500000  0.125000    0.00195312  53 t-inv F
 -0.250000  0.500000  0.125000    0.00195312  54 t-inv F
 -0.125000  0.500000  0.125000    0.00195312  55 t-inv F
  0.250000 -0.375000  0.125000    0.00195312  56 t-inv F
  0.375000 -0.375000  0.125000    0.00195312  57 t-inv F
  0.500000 -0.375000  0.125000    0.00195312  58 t-inv F
 -0.375000 -0.375000  0.125000    0.00195312  59 t-inv F
 -0.250000 -0.375000  0.125000    0.00195312  60 t-inv F
 -0.125000 -0.375000  0.125000    0.00195312  61 t-inv F
  0.250000 -0.250000  0.125000    0.00195312  62 t-inv F
  0.375000 -0.250000  0.125000    0.00195312  63 t-inv F
  0.500000 -0.250000  0.125000    0.00195312  64 t-inv F
 -0.375000 -0.250000  0.125000    0.00195312  65 t-inv F
 -0.250000 -0.250000  0.125000    0.00195312  66 t-inv F
 -0.125000 -0.250000  0.125000    0.00195312  67 t-inv F
  0.250000  0.250000  0.250000    0.00195312  68 t-inv F
  0.375000  0.250000  0.250000    0.00195312  69 t-inv F
  0.500000  0.250000  0.250000    0.00195312  70 t-inv F
 -0.375000  0.250000  0.250000    0.00195312  71 t-inv F
 -0.250000  0.250000  0.250000    0.00195312  72 t-inv F
  0.375000  0.375000  0.250000    0.00195312  73 t-inv F
  0.500000  0.375000  0.250000    0.00195312  74 t-inv F
 -0.375000  0.375000  0.250000    0.00195312  75 t-inv F
 -0.250000  0.375000  0.250000    0.00195312  76 t-inv F
  0.375000  0.500000  0.250000    0.00195312  77 t-inv F
  0.500000  0.500000  0.250000    0.00195312  78 t-inv F
 -0.375000  0.500000  0.250000    0.00195312  79 t-inv F
 -0.250000  0.500000  0.250000    0.00195312  80 t-inv F
  0.375000 -0.375000  0.250000    0.00195312  81 t-inv F
  0.500000 -0.375000  0.250000    0.00195312  82 t-inv F
 -0.375000 -0.375000  0.250000    0.00195312  83 t-inv F
 -0.250000 -0.375000  0.250000    0.00195312  84 t-inv F
  0.375000  0.375000  0.375000    0.00195312  85 t-inv F
  0.500000  0.375000  0.375000    0.00195312  86 t-inv F
 -0.375000  0.375000  0.375000    0.00195312  87 t-inv F
  0.500000  0.500000  0.375000    0.00195312  88 t-inv F
 -0.375000  0.500000  0.375000    0.00195312  89 t-inv F
  0.500000  0.500000  0.500000    0.00195312  90 t-inv F
  0.000000  0.125000  0.000000    0.00195312   2 t-inv F
  0.000000  0.000000  0.125000    0.00195312   2 t-inv F
  0.000000  0.250000  0.000000    0.00195312   3 t-inv F
  0.000000  0.000000  0.250000    0.00195312   3 t-inv F
  0.000000  0.375000 -0.000000    0.00195312   4 t-inv F
 -0.000000  0.000000  0.375000    0.00195312   4 t-inv F
  0.000000  0.500000  0.000000    0.00195312   5 t-inv F
  0.000000  0.000000  0.500000    0.00195312   5 t-inv F
  0.000000  0.125000  0.125000    0.00195312   6 t-inv F
  0.125000  0.000000  0.125000    0.00195312   6 t-inv F
  0.000000  0.250000  0.125000    0.00195312   7 t-inv F
  0.125000  0.000000  0.250000    0.00195312   7 t-inv F
  0.000000  0.375000  0.125000    0.00195312   8 t-inv F
  0.125000  0.000000  0.375000    0.00195312   8 t-inv F
  0.000000  0.500000  0.125000    0.00195312   9 t-inv F
  0.125000  0.000000  0.500000    0.00195312   9 t-inv F
 -0.000000 -0.375000  0.125000    0.00195312  10 t-inv F
  0.125000 -0.000000 -0.375000    0.00195312  10 t-inv F
 -0.000000 -0.250000  0.125000    0.00195312  11 t-inv F
  0.125000 -0.000000 -0.250000    0.00195312  11 t-inv F
 -0.000000 -0.125000  0.125000    0.00195312  12 t-inv F
  0.125000 -0.000000 -0.125000    0.00195312  12 t-inv F
  0.000000  0.125000  0.250000    0.00195312  13 t-inv F
  0.250000  0.000000  0.125000    0.00195312  13 t-inv F
  0.000000  0.250000  0.250000    0.00195312  14 t-inv F
  0.250000  0.000000  0.250000    0.00195312  14 t-inv F
  0.000000  0.375000  0.250000    0.00195312  15 t-inv F
  0.250000  0.000000  0.375000    0.00195312  15 t-inv F
  0.000000  0.500000  0.250000    0.00195312  16 t-inv F
  0.250000  0.000000  0.500000    0.00195312  16 t-inv F
 -0.000000 -0.375000  0.250000    0.00195312  17 t-inv F
  0.250000 -0.000000 -0.375000    0.00195312  17 t-inv F
 -0.000000 -0.250000  0.250000    0.00195312  18 t-inv F
  0.250000 -0.000000 -0.250000    0.00195312  18 t-inv F
 -0.000000 -0.125000  0.250000    0.00195312  19 t-inv F
  0.250000 -0.000000 -0.125000    0.00195312  19 t-inv F
  0.000000  0.125000  0.375000    0.00195312  20 t-inv F
  0.375000  0.000000  0.125000    0.00195312  20 t-inv F
  0.000000  0.250000  0.375000    0.00195312  21 t-inv F
  0.375000  0.000000  0.250000    0.00195312  21 t-inv F
  0.000000  0.375000  0.375000    0.00195312  22 t-inv F
  0.375000  0.000000  0.375000    0.00195312  22 t-inv F
  0.000000  0.500000  0.375000    0.00195312  23 t-inv F
  0.375000  0.000000  0.500000    0.00195312  23 t-inv F
 -0.000000 -0.375000  0.375000    0.00195312  24 t-inv F
  0.375000 -0.000000 -0.375000    0.00195312  24 t-inv F
 -0.000000 -0.250000  0.375000    0.00195312  25 t-inv F
  0.375000 -0.000000 -0.250000    0.00195312  25 t-inv F
 -0.000000 -0.125000  0.375000    0.00195312  26 t-inv F
  0.375000 -0.000000 -0.125000    0.00195312  26 t-inv F
 -0.000000  0.125000  0.500000    0.00195312  27 t-inv F
  0.500000 -0.000000  0.125000    0.00195312  27 t-inv F
  0.000000  0.250000  0.500000    0.00195312  28 t-inv F
  0.500000  0.000000  0.250000    0.00195312  28 t-inv F
  0.000000  0.375000  0.500000    0.00195312  29 t-inv F
  0.500000  0.000000  0.375000    0.00195312  29 t-inv F
  0.000000  0.500000  0.500000    0.00195312  30 t-inv F
  0.500000  0.000000  0.500000    0.00195312  30 t-inv F
  0.125000  0.250000  0.125000    0.00195312  32 t-inv F
  0.125000  0.125000  0.250000    0.00195312  32 t-inv F
  0.125000  0.375000  0.125000    0.00195312  33 t-inv F
  0.125000  0.125000  0.375000    0.00195312  33 t-inv F
  0.125000  0.500000  0.125000    0.00195312  34 t-inv F
  0.125000  0.125000  0.500000    0.00195312  34 t-inv F
  0.125000 -0.375000  0.125000    0.00195312  35 t-inv F
  0.125000  0.125000 -0.375000    0.00195312  35 t-inv F
  0.125000 -0.250000  0.125000    0.00195312  36 t-inv F
  0.125000  0.125000 -0.250000    0.00195312  36 t-inv F
  0.125000 -0.125000  0.125000    0.00195312  37 t-inv F
  0.125000  0.125000 -0.125000    0.00195312  37 t-inv F
  0.125000  0.250000  0.250000    0.00195312  38 t-inv F
  0.250000  0.125000  0.250000    0.00195312  38 t-inv F
  0.125000  0.375000  0.250000    0.00195312  39 t-inv F
  0.250000  0.125000  0.375000    0.00195312  39 t-inv F
  0.125000  0.500000  0.250000    0.00195312  40 t-inv F
  0.250000  0.125000  0.500000    0.00195312  40 t-inv F
  0.125000 -0.375000  0.250000    0.00195312  41 t-inv F
  0.250000  0.125000 -0.375000    0.00195312  41 t-inv F
  0.125000 -0.250000  0.250000    0.00195312  42 t-inv F
  0.250000  0.125000 -0.250000    0.00195312  42 t-inv F
  0.125000 -0.125000  0.250000    0.00195312  43 t-inv F
  0.250000  0.125000 -0.125000    0.00195312  43 t-inv F
  0.125000  0.250000  0.375000    0.00195312  44 t-inv F
  0.375000  0.125000  0.250000    0.00195312  44 t-inv F
  0.125000  0.375000  0.375000    0.00195312  45 t-inv F
  0.375000  0.125000  0.375000    0.00195312  45 t-inv F
  0.125000  0.500000  0.375000    0.00195312  46 t-inv F
  0.375000  0.125000  0.500000    0.00195312  46 t-inv F
  0.125000 -0.375000  0.375000    0.00195312  47 t-inv F
  0.375000  0.125000 -0.375000    0.00195312  47 t-inv F
  0.125000 -0.250000  0.375000    0.00195312  48 t-inv F
  0.375000  0.125000 -0.250000    0.00195312  48 t-inv F
  0.125000 -0.125000  0.375000    0.00195312  49 t-inv F
  0.375000  0.125000 -0.125000    0.00195312  49 t-inv F
  0.125000  0.250000  0.500000    0.00195312  50 t-inv F
  0.500000  0.125000  0.250000    0.00195312  50 t-inv F
  0.125000  0.375000  0.500000    0.00195312  51 t-inv F
  0.500000  0.125000  0.375000    0.00195312  51 t-inv F
  0.125000  0.500000  0.500000    0.00195312  52 t-inv F
  0.500000  0.125000  0.500000    0.00195312  52 t-inv F
  0.125000 -0.375000  0.500000    0.00195312  53 t-inv F
  0.500000  0.125000 -0.375000    0.00195312  53 t-inv F
  0.125000 -0.250000  0.500000    0.00195312  54 t-inv F
  0.500000  0.125000 -0.250000    0.00195312  54 t-inv F
  0.125000 -0.125000  0.500000    0.00195312  55 t-inv F
  0.500000  0.125000 -0.125000    0.00195312  55 t-inv F
  0.125000  0.250000 -0.375000    0.00195312  56 t-inv F
 -0.375000  0.125000  0.250000    0.00195312  56 t-inv F
  0.125000  0.375000 -0.375000    0.00195312  57 t-inv F
 -0.375000  0.125000  0.375000    0.00195312  57 t-inv F
  0.125000  0.500000 -0.375000    0.00195312  58 t-inv F
 -0.375000  0.125000  0.500000    0.00195312  58 t-inv F
  0.125000 -0.375000 -0.375000    0.00195312  59 t-inv F
 -0.375000  0.125000 -0.375000    0.00195312  59 t-inv F
  0.125000 -0.250000 -0.375000    0.00195312  60 t-inv F
 -0.375000  0.125000 -0.250000    0.00195312  60 t-inv F
  0.125000 -0.125000 -0.375000    0.00195312  61 t-inv F
 -0.375000  0.125000 -0.125000    0.00195312  61 t-inv F
  0.125000  0.250000 -0.250000    0.00195312  62 t-inv F
 -0.250000  0.125000  0.250000    0.00195312  62 t-inv F
  0.125000  0.375000 -0.250000    0.00195312  63 t-inv F
 -0.250000  0.125000  0.375000    0.00195312  63 t-inv F
  0.125000  0.500000 -0.250000    0.00195312  64 t-inv F
 -0.250000  0.125000  0.500000    0.00195312  64 t-inv F
  0.125000 -0.375000 -0.250000    0.00195312  65 t-inv F
 -0.250000  0.125000 -0.375000    0.00195312  65 t-inv F
  0.125000 -0.250000 -0.250000    0.00195312  66 t-inv F
 -0.250000  0.125000 -0.250000    0.00195312  66 t-inv F
  0.125000 -0.125000 -0.250000    0.00195312  67 t-inv F
 -0.250000  0.125000 -0.125000    0.00195312  67 t-inv F
  0.250000  0.375000  0.250000    0.00195312  69 t-inv F
  0.250000  0.250000  0.375000    0.00195312  69 t-inv F
  0.250000  0.500000  0.250000    0.00195312  70 t-inv F
  0.250000  0.250000  0.500000    0.00195312  70 t-inv F
  0.250000 -0.375000  0.250000    0.00195312  71 t-inv F
  0.250000  0.250000 -0.375000    0.00195312  71 t-inv F
  0.250000 -0.250000  0.250000    0.00195312  72 t-inv F
  0.250000  0.250000 -0.250000    0.00195312  72 t-inv F
  0.250000  0.375000  0.375000    0.00195312  73 t-inv F
  0.375000  0.250000  0.375000    0.00195312  73 t-inv F
  0.250000  0.500000  0.375000    0.00195312  74 t-inv F
  0.375000  0.250000  0.500000    0.00195312  74 t-inv F
  0.250000 -0.375000  0.375000    0.00195312  75 t-inv F
  0.375000  0.250000 -0.375000    0.00195312  75 t-inv F
  0.250000 -0.250000  0.375000    0.00195312  76 t-inv F
  0.375000  0.250000 -0.250000    0.00195312  76 t-inv F
  0.250000  0.375000  0.500000    0.00195312  77 t-inv F
  0.500000  0.250000  0.375000    0.00195312  77 t-inv F
  0.250000  0.500000  0.500000    0.00195312  78 t-inv F
  0.500000  0.250000  0.500000    0.00195312  78 t-inv F
  0.250000 -0.375000  0.500000    0.00195312  79 t-inv F
  0.500000  0.250000 -0.375000    0.00195312  79 t-inv F
  0.250000 -0.250000  0.500000    0.00195312  80 t-inv F
  0.500000  0.250000 -0.250000    0.00195312  80 t-inv F
  0.250000  0.375000 -0.375000    0.00195312  81 t-inv F
 -0.375000  0.250000  0.375000    0.00195312  81 t-inv F
  0.250000  0.500000 -0.375000    0.00195312  82 t-inv F
 -0.375000  0.250000  0.500000    0.00195312  82 t-inv F
  0.250000 -0.375000 -0.375000    0.00195312  83 t-inv F
 -0.375000  0.250000 -0.375000    0.00195312  83 t-inv F
  0.250000 -0.250000 -0.375000    0.00195312  84 t-inv F
 -0.375000  0.250000 -0.250000    0.00195312  84 t-inv F
  0.375000  0.500000  0.375000    0.00195312  86 t-inv F
  0.375000  0.375000  0.500000    0.00195312  86 t-inv F
  0.375000 -0.375000  0.375000    0.00195312  87 t-inv F
  0.375000  0.375000 -0.375000    0.00195312  87 t-inv F
  0.375000  0.500000  0.500000    0.00195312  88 t-inv F
  0.500000  0.375000  0.500000    0.00195312  88 t-inv F
  0.375000 -0.375000  0.500000    0.00195312  89 t-inv F
  0.500000  0.375000 -0.375000    0.00195312  89 t-inv F
 -0.125000 -0.000000 -0.000000    0.00195312   2 t-inv T
 -0.000000 -0.125000 -0.000000    0.00195312   2 t-inv T
 -0.000000 -0.000000 -0.125000    0.00195312   2 t-inv T
 -0.250000 -0.000000 -0.000000    0.00195312   3 t-inv T
 -0.000000 -0.250000 -0.000000    0.00195312   3 t-inv T
 -0.000000 -0.000000 -0.250000    0.00195312   3 t-inv T
 -0.375000  0.000000 -0.000000    0.00195312   4 t-inv T
 -0.000000 -0.375000  0.000000    0.00195312   4 t-inv T
  0.000000 -0.000000 -0.375000    0.00195312   4 t-inv T
 -0.125000 -0.125000 -0.000000    0.00195312   6 t-inv T
 -0.000000 -0.125000 -0.125000    0.00195312   6 t-inv T
 -0.125000 -0.000000 -0.125000    0.00195312   6 t-inv T
 -0.250000 -0.125000 -0.000000    0.00195312   7 t-inv T
 -0.000000 -0.250000 -0.125000    0.00195312   7 t-inv T
 -0.125000 -0.000000 -0.250000    0.00195312   7 t-inv T
 -0.375000 -0.125000 -0.000000    0.00195312   8 t-inv T
 -0.000000 -0.375000 -0.125000    0.00195312   8 t-inv T
 -0.125000 -0.000000 -0.375000    0.00195312   8 t-inv T
 -0.500000 -0.125000 -0.000000    0.00195312   9 t-inv T
 -0.000000 -0.500000 -0.125000    0.00195312   9 t-inv T
 -0.125000 -0.000000 -0.500000    0.00195312   9 t-inv T
  0.375000 -0.125000  0.000000    0.00195312  10 t-inv T
  0.000000  0.375000 -0.125000    0.00195312  10 t-inv T
 -0.125000  0.000000  0.375000    0.00195312  10 t-inv T
  0.250000 -0.125000  0.000000    0.00195312  11 t-inv T
  0.000000  0.250000 -0.125000    0.00195312  11 t-inv T
 -0.125000  0.000000  0.250000    0.00195312  11 t-inv T
  0.125000 -0.125000  0.000000    0.00195312  12 t-inv T
  0.000000  0.125000 -0.125000    0.00195312  12 t-inv T
 -0.125000  0.000000  0.125000    0.00195312  12 t-inv T
 -0.125000 -0.250000 -0.000000    0.00195312  13 t-inv T
 -0.000000 -0.125000 -0.250000    0.00195312  13 t-inv T
 -0.250000 -0.000000 -0.125000    0.00195312  13 t-inv T
 -0.250000 -0.250000 -0.000000    0.00195312  14 t-inv T
 -0.000000 -0.250000 -0.250000    0.00195312  14 t-inv T
 -0.250000 -0.000000 -0.250000    0.00195312  14 t-inv T
 -0.375000 -0.250000  0.000000    0.00195312  15 t-inv T
  0.000000 -0.375000 -0.250000    0.00195312  15 t-inv T
 -0.250000  0.000000 -0.375000    0.00195312  15 t-inv T
 -0.500000 -0.250000 -0.000000    0.00195312  16 t-inv T
 -0.000000 -0.500000 -0.250000    0.00195312  16 t-inv T
 -0.250000 -0.000000 -0.500000    0.00195312  16 t-inv T
  0.375000 -0.250000  0.000000    0.00195312  17 t-inv T
  0.000000  0.375000 -0.250000    0.00195312  17 t-inv T
 -0.250000  0.000000  0.375000    0.00195312  17 t-inv T
  0.250000 -0.250000  0.000000    0.00195312  18 t-inv T
  0.000000  0.250000 -0.250000    0.00195312  18 t-inv T
 -0.250000  0.000000  0.250000    0.00195312  18 t-inv T
  0.125000 -0.250000  0.000000    0.00195312  19 t-inv T
  0.000000  0.125000 -0.250000    0.00195312  19 t-inv T
 -0.250000  0.000000  0.125000    0.00195312  19 t-inv T
 -0.125000 -0.375000  0.000000    0.00195312  20 t-inv T
  0.000000 -0.125000 -0.375000    0.00195312  20 t-inv T
 -0.375000  0.000000 -0.125000    0.00195312  20 t-inv T
 -0.250000 -0.375000 -0.000000    0.00195312  21 t-inv T
 -0.000000 -0.250000 -0.375000    0.00195312  21 t-inv T
 -0.375000 -0.000000 -0.250000    0.00195312  21 t-inv T
 -0.375000 -0.375000 -0.000000    0.00195312  22 t-inv T
 -0.000000 -0.375000 -0.375000    0.00195312  22 t-inv T
 -0.375000 -0.000000 -0.375000    0.00195312  22 t-inv T
 -0.500000 -0.375000 -0.000000    0.00195312  23 t-inv T
 -0.000000 -0.500000 -0.375000    0.00195312  23 t-inv T
 -0.375000 -0.000000 -0.500000    0.00195312  23 t-inv T
  0.375000 -0.375000  0.000000    0.00195312  24 t-inv T
  0.000000  0.375000 -0.375000    0.00195312  24 t-inv T
 -0.375000  0.000000  0.375000    0.00195312  24 t-inv T
  0.250000 -0.375000  0.000000    0.00195312  25 t-inv T
  0.000000  0.250000 -0.375000    0.00195312  25 t-inv T
 -0.375000  0.000000  0.250000    0.00195312  25 t-inv T
  0.125000 -0.375000  0.000000    0.00195312  26 t-inv T
  0.000000  0.125000 -0.375000    0.00195312  26 t-inv T
 -0.375000  0.000000  0.125000    0.00195312  26 t-inv T
 -0.125000 -0.500000  0.000000    0.00195312  27 t-inv T
  0.000000 -0.125000 -0.500000    0.00195312  27 t-inv T
 -0.500000  0.000000 -0.125000    0.00195312  27 t-inv T
 -0.250000 -0.500000 -0.000000    0.00195312  28 t-inv T
 -0.000000 -0.250000 -0.500000    0.00195312  28 t-inv T
 -0.500000 -0.000000 -0.250000    0.00195312  28 t-inv T
 -0.375000 -0.500000 -0.000000    0.00195312  29 t-inv T
 -0.000000 -0.375000 -0.500000    0.00195312  29 t-inv T
 -0.500000 -0.000000 -0.375000    0.00195312  29 t-inv T
 -0.125000 -0.125000 -0.125000    0.00195312  31 t-inv T
 -0.250000 -0.125000 -0.125000    0.00195312  32 t-inv T
 -0.125000 -0.250000 -0.125000    0.00195312  32 t-inv T
 -0.125000 -0.125000 -0.250000    0.00195312  32 t-inv T
 -0.375000 -0.125000 -0.125000    0.00195312  33 t-inv T
 -0.125000 -0.375000 -0.125000    0.00195312  33 t-inv T
 -0.125000 -0.125000 -0.375000    0.00195312  33 t-inv T
 -0.500000 -0.125000 -0.125000    0.00195312  34 t-inv T
 -0.125000 -0.500000 -0.125000    0.00195312  34 t-inv T
 -0.125000 -0.125000 -0.500000    0.00195312  34 t-inv T
  0.375000 -0.125000 -0.125000    0.00195312  35 t-inv T
 -0.125000  0.375000 -0.125000    0.00195312  35 t-inv T
 -0.125000 -0.125000  0.375000    0.00195312  35 t-inv T
  0.250000 -0.125000 -0.125000    0.00195312  36 t-inv T
 -0.125000  0.250000 -0.125000    0.00195312  36 t-inv T
 -0.125000 -0.125000  0.250000    0.00195312  36 t-inv T
  0.125000 -0.125000 -0.125000    0.00195312  37 t-inv T
 -0.125000  0.125000 -0.125000    0.00195312  37 t-inv T
 -0.125000 -0.125000  0.125000    0.00195312  37 t-inv T
 -0.250000 -0.250000 -0.125000    0.00195312  38 t-inv T
 -0.125000 -0.250000 -0.250000    0.00195312  38 t-inv T
 -0.250000 -0.125000 -0.250000    0.00195312  38 t-inv T
 -0.375000 -0.250000 -0.125000    0.00195312  39 t-inv T
 -0.125000 -0.375000 -0.250000    0.00195312  39 t-inv T
 -0.250000 -0.125000 -0.375000    0.00195312  39 t-inv T
 -0.500000 -0.250000 -0.125000    0.00195312  40 t-inv T
 -0.125000 -0.500000 -0.250000    0.00195312  40 t-inv T
 -0.250000 -0.125000 -0.500000    0.00195312  40 t-inv T
  0.375000 -0.250000 -0.125000    0.00195312  41 t-inv T
 -0.125000  0.375000 -0.250000    0.00195312  41 t-inv T
 -0.250000 -0.125000  0.375000    0.00195312  41 t-inv T
  0.250000 -0.250000 -0.125000    0.00195312  42 t-inv T
 -0.125000  0.250000 -0.250000    0.00195312  42 t-inv T
 -0.250000 -0.125000  0.250000    0.00195312  42 t-inv T
  0.125000 -0.250000 -0.125000    0.00195312  43 t-inv T
 -0.125000  0.125000 -0.250000    0.00195312  43 t-inv T
 -0.250000 -0.125000  0.125000    0.00195312  43 t-inv T
 -0.250000 -0.375000 -0.125000    0.00195312  44 t-inv T
 -0.125000 -0.250000 -0.375000    0.00195312  44 t-inv T
 -0.375000 -0.125000 -0.250000    0.00195312  44 t-inv T
 -0.375000 -0.375000 -0.125000    0.00195312  45 t-inv T
 -0.125000 -0.375000 -0.375000    0.00195312  45 t-inv T
 -0.375000 -0.125000 -0.375000    0.00195312  45 t-inv T
 -0.500000 -0.375000 -0.125000    0.00195312  46 t-inv T
 -0.125000 -0.500000 -0.375000    0.00195312  46 t-inv T
 -0.375000 -0.125000 -0.500000    0.00195312  46 t-inv T
  0.375000 -0.375000 -0.125000    0.00195312  47 t-inv T
 -0.125000  0.375000 -0.375000    0.00195312  47 t-inv T
 -0.375000 -0.125000  0.375000    0.00195312  47 t-inv T
  0.250000 -0.375000 -0.125000    0.00195312  48 t-inv T
 -0.125000  0.250000 -0.375000    0.00195312  48 t-inv T
 -0.375000 -0.125000  0.250000    0.00195312  48 t-inv T
  0.125000 -0.375000 -0.125000    0.00195312  49 t-inv T
 -0.125000  0.125000 -0.375000    0.00195312  49 t-inv T
 -0.375000 -0.125000  0.125000    0.00195312  49 t-inv T
 -0.250000 -0.500000 -0.125000    0.00195312  50 t-inv T
 -0.125000 -0.250000 -0.500000    0.00195312  50 t-inv T
 -0.500000 -0.125000 -0.250000    0.00195312  50 t-inv T
 -0.375000 -0.500000 -0.125000    0.00195312  51 t-inv T
 -0.125000 -0.375000 -0.500000    0.00195312  51 t-inv T
 -0.500000 -0.125000 -0.375000    0.00195312  51 t-inv T
 -0.500000 -0.500000 -0.125000    0.00195312  52 t-inv T
 -0.125000 -0.500000 -0.500000    0.00195312  52 t-inv T
 -0.500000 -0.125000 -0.500000    0.00195312  52 t-inv T
  0.375000 -0.500000 -0.125000    0.00195312  53 t-inv T
 -0.125000  0.375000 -0.500000    0.00195312  53 t-inv T
 -0.500000 -0.125000  0.375000    0.00195312  53 t-inv T
  0.250000 -0.500000 -0.125000    0.00195312  54 t-inv T
 -0.125000  0.250000 -0.500000    0.00195312  54 t-inv T
 -0.500000 -0.125000  0.250000    0.00195312  54 t-inv T
  0.125000 -0.500000 -0.125000    0.00195312  55 t-inv T
 -0.125000  0.125000 -0.500000    0.00195312  55 t-inv T
 -0.500000 -0.125000  0.125000    0.00195312  55 t-inv T
 -0.250000  0.375000 -0.125000    0.00195312  56 t-inv T
 -0.125000 -0.250000  0.375000    0.00195312  56 t-inv T
  0.375000 -0.125000 -0.250000    0.00195312  56 t-inv T
 -0.375000  0.375000 -0.125000    0.00195312  57 t-inv T
 -0.125000 -0.375000  0.375000    0.00195312  57 t-inv T
  0.375000 -0.125000 -0.375000    0.00195312  57 t-inv T
 -0.500000  0.375000 -0.125000    0.00195312  58 t-inv T
 -0.125000 -0.500000  0.375000    0.00195312  58 t-inv T
  0.375000 -0.125000 -0.500000    0.00195312  58 t-inv T
  0.375000  0.375000 -0.125000    0.00195312  59 t-inv T
 -0.125000  0.375000  0.375000    0.00195312  59 t-inv T
  0.375000 -0.125000  0.375000    0.00195312  59 t-inv T
  0.250000  0.375000 -0.125000    0.00195312  60 t-inv T
 -0.125000  0.250000  0.375000    0.00195312  60 t-inv T
  0.375000 -0.125000  0.250000    0.00195312  60 t-inv T
  0.125000  0.375000 -0.125000    0.00195312  61 t-inv T
 -0.125000  0.125000  0.375000    0.00195312  61 t-inv T
  0.375000 -0.125000  0.125000    0.00195312  61 t-inv T
 -0.250000  0.250000 -0.125000    0.00195312  62 t-inv T
 -0.125000 -0.250000  0.250000    0.00195312  62 t-inv T
  0.250000 -0.125000 -0.250000    0.00195312  62 t-inv T
 -0.375000  0.250000 -0.125000    0.00195312  63 t-inv T
 -0.125000 -0.375000  0.250000    0.00195312  63 t-inv T
  0.250000 -0.125000 -0.375000    0.00195312  63 t-inv T
 -0.500000  0.250000 -0.125000    0.00195312  64 t-inv T
 -0.125000 -0.500000  0.250000    0.00195312  64 t-inv T
  0.250000 -0.125000 -0.500000    0.00195312  64 t-inv T
  0.375000  0.250000 -0.125000    0.00195312  65 t-inv T
 -0.125000  0.375000  0.250000    0.00195312  65 t-inv T
  0.250000 -0.125000  0.375000    0.00195312  65 t-inv T
  0.250000  0.250000 -0.125000    0.00195312  66 t-inv T
 -0.125000  0.250000  0.250000    0.00195312  66 t-inv T
  0.250000 -0.125000  0.250000    0.00195312  66 t-inv T
  0.125000  0.250000 -0.125000    0.00195312  67 t-inv T
 -0.125000  0.125000  0.250000    0.00195312  67 t-inv T
  0.250000 -0.125000  0.125000    0.00195312  67 t-inv T
 -0.250000 -0.250000 -0.250000    0.00195312  68 t-inv T
 -0.375000 -0.250000 -0.250000    0.00195312  69 t-inv T
 -0.250000 -0.375000 -0.250000    0.00195312  69 t-inv T
 -0.250000 -0.250000 -0.375000    0.00195312  69 t-inv T
 -0.500000 -0.250000 -0.250000    0.00195312  70 t-inv T
 -0.250000 -0.500000 -0.250000    0.00195312  70 t-inv T
 -0.250000 -0.250000 -0.500000    0.00195312  70 t-inv T
  0.375000 -0.250000 -0.250000    0.00195312  71 t-inv T
 -0.250000  0.375000 -0.250000    0.00195312  71 t-inv T
 -0.250000 -0.250000  0.375000    0.00195312  71 t-inv T
  0.250000 -0.250000 -0.250000    0.00195312  72 t-inv T
 -0.250000  0.250000 -0.250000    0.00195312  72 t-inv T
 -0.250000 -0.250000  0.250000    0.00195312  72 t-inv T
 -0.375000 -0.375000 -0.250000    0.00195312  73 t-inv T
 -0.250000 -0.375000 -0.375000    0.00195312  73 t-inv T
 -0.375000 -0.250000 -0.375000    0.00195312  73 t-inv T
 -0.500000 -0.375000 -0.250000    0.00195312  74 t-inv T
 -0.250000 -0.500000 -0.375000    0.00195312  74 t-inv T
 -0.375000 -0.250000 -0.500000    0.00195312  74 t-inv T
  0.375000 -0.375000 -0.250000    0.00195312  75 t-inv T
 -0.250000  0.375000 -0.375000    0.00195312  75 t-inv T
 -0.375000 -0.250000  0.375000    0.00195312  75 t-inv T
  0.250000 -0.375000 -0.250000    0.00195312  76 t-inv T
 -0.250000  0.250000 -0.375000    0.00195312  76 t-inv T
 -0.375000 -0.250000  0.250000    0.00195312  76 t-inv T
 -0.375000 -0.500000 -0.250000    0.00195312  77 t-inv T
 -0.250000 -0.375000 -0.500000    0.00195312  77 t-inv T
 -0.500000 -0.250000 -0.375000    0.00195312  77 t-inv T
 -0.500000 -0.500000 -0.250000    0.00195312  78 t-inv T
 -0.250000 -0.500000 -0.500000    0.00195312  78 t-inv T
 -0.500000 -0.250000 -0.500000    0.00195312  78 t-inv T
  0.375000 -0.500000 -0.250000    0.00195312  79 t-inv T
 -0.250000  0.375000 -0.500000    0.00195312  79 t-inv T
 -0.500000 -0.250000  0.375000    0.00195312  79 t-inv T
  0.250000 -0.500000 -0.250000    0.00195312  80 t-inv T
 -0.250000  0.250000 -0.500000    0.00195312  80 t-inv T
 -0.500000 -0.250000  0.250000    0.00195312  80 t-inv T
 -0.375000  0.375000 -0.250000    0.00195312  81 t-inv T
 -0.250000 -0.375000  0.375000    0.00195312  81 t-inv T
  0.375000 -0.250000 -0.375000    0.00195312  81 t-inv T
 -0.500000  0.375000 -0.250000    0.00195312  82 t-inv T
 -0.250000 -0.500000  0.375000    0.00195312  82 t-inv T
  0.375000 -0.250000 -0.500000    0.00195312  82 t-inv T
  0.375000  0.375000 -0.250000    0.00195312  83 t-inv T
 -0.250000  0.375000  0.375000    0.00195312  83 t-inv T
  0.375000 -0.250000  0.375000    0.00195312  83 t-inv T
  0.250000  0.375000 -0.250000    0.00195312  84 t-inv T
 -0.250000  0.250000  0.375000    0.00195312  84 t-inv T
  0.375000 -0.250000  0.250000    0.00195312  84 t-inv T
 -0.375000 -0.375000 -0.375000    0.00195312  85 t-inv T
 -0.500000 -0.375000 -0.375000    0.00195312  86 t-inv T
 -0.375000 -0.500000 -0.375000    0.00195312  86 t-inv T
 -0.375000 -0.375000 -0.500000    0.00195312  86 t-inv T
  0.375000 -0.375000 -0.375000    0.00195312  87 t-inv T
 -0.375000  0.375000 -0.375000    0.00195312  87 t-inv T
 -0.375000 -0.375000  0.375000    0.00195312  87 t-inv T
 -0.500000 -0.500000 -0.375000    0.00195312  88 t-inv T
 -0.375000 -0.500000 -0.500000    0.00195312  88 t-inv T
 -0.500000 -0.375000 -0.500000    0.00195312  88 t-inv T
  0.375000 -0.500000 -0.375000    0.00195312  89 t-inv T
 -0.375000  0.375000 -0.500000    0.00195312  89 t-inv T
 -0.500000 -0.375000  0.375000    0.00195312  89 t-inv T


--------------------------------------------------------------------------------------------------------




 Dimension of arrays:
   k-points           NKPTS =     90   k-points in BZ     NKDIM =     90   number of bands    NBANDS=     56
   number of dos      NEDOS =    301   number of ions     NIONS =     10
   non local maximal  LDIM  =      6   non local SUM 2l+1 LMDIM =     18
   total plane-waves  NPLWV =  32768
   max r-space proj   IRMAX =      1   max aug-charges    IRDMAX=  12003
   dimension x,y,z NGX =    32 NGY =   32 NGZ =   32
   dimension x,y,z NGXF=    64 NGYF=   64 NGZF=   64
   support grid    NGXF=    64 NGYF=   64 NGZF=   64
   ions per type =               2   6   2
 NGX,Y,Z   is equivalent  to a cutoff of   9.50,  9.50,  9.50 a.u.
 NGXF,Y,Z  is equivalent  to a cutoff of  19.00, 19.00, 19.00 a.u.


 I would recommend the setting:
   dimension x,y,z NGX =    31 NGY =   31 NGZ =   31
 SYSTEM =  unknown system                          
 POSCAR =  Bi    O   Fe                            

 Startparameter for this run:
   NWRITE =      2    write-flag & timer
   PREC   = normal    normal or accurate (medium, high low for compatibility)
   ISTART =      0    job   : 0-new  1-cont  2-samecut
   ICHARG =      1    charge: 1-file 2-atom 10-const
   ISPIN  =      2    spin polarized calculation?
   LNONCOLLINEAR =      F non collinear calculations
   LSORBIT =      F    spin-orbit coupling
   INIWAV =      1    electr: 0-lowe 1-rand  2-diag
   LASPH  =      T    aspherical Exc in radial PAW
   METAGGA=      F    non-selfconsistent MetaGGA calc.

 Electronic Relaxation 1
   ENCUT  =  520.0 eV  38.22 Ry    6.18 a.u.  10.41 10.41 10.41*2*pi/ulx,y,z
   ENINI  =  520.0     initial cutoff
   ENAUG  =  605.4 eV  augmentation charge cutoff
   NELM   =     60;   NELMIN=  2; NELMDL= -5     # of ELM steps 
   EDIFF  = 0.1E-06   stopping-criterion for ELM
   LREAL  =      F    real-space projection
   NLSPLINE    = F    spline interpolate recip. space projectors
   LCOMPAT=      F    compatible to vasp.4.4
   GGA_COMPAT  = T    GGA compatible to vasp.4.4-vasp.4.6
   LMAXPAW     = -100 max onsite density
   LMAXMIX     =    6 max onsite mixed and CHGCAR
   VOSKOWN=      0    Vosko Wilk Nusair interpolation
   ROPT   =    0.00000   0.00000   0.00000
 Ionic relaxation
   EDIFFG = 0.1E-05   stopping-criterion for IOM
   NSW    =      0    number of steps for IOM
   NBLOCK =      1;   KBLOCK =      1    inner block; outer block 
   IBRION =     -1    ionic relax: 0-MD 1-quasi-New 2-CG
   NFREE  =      0    steps in history (QN), initial steepest desc. (CG)
   ISIF   =      2    stress and relaxation
   IWAVPR =     10    prediction:  0-non 1-charg 2-wave 3-comb
   ISYM   =      2    0-nonsym 1-usesym 2-fastsym
   LCORR  =      T    Harris-Foulkes like correction to forces

   POTIM  = 0.5000    time-step for ionic-motion
   TEIN   =    0.0    initial temperature
   TEBEG  =    0.0;   TEEND  =   0.0 temperature during run
   SMASS  =  -3.00    Nose mass-parameter (am)
   estimated Nose-frequenzy (Omega)   =  0.10E-29 period in steps =****** mass=  -0.717E-27a.u.
   SCALEE = 1.0000    scale energy and forces
   NPACO  =    256;   APACO  = 16.0  distance and # of slots for P.C.
   PSTRESS=    0.0 pullay stress

  Mass of Ions in am
   POMASS = 208.98 16.00 55.85
  Ionic Valenz
   ZVAL   =  15.00  6.00 14.00
  Atomic Wigner-Seitz radii
   RWIGS  =  -1.00 -1.00 -1.00
  virtual crystal weights 
   VCA    =   1.00  1.00  1.00
   NELECT =      94.0000    total number of electrons
   NUPDOWN=      -1.0000    fix difference up-down

 DOS related values:
   EMIN   =  10.00;   EMAX   =-10.00  energy-range for DOS
   EFERMI =   0.00
   ISMEAR =     0;   SIGMA  =   0.05  broadening in eV -4-tet -1-fermi 0-gaus

 Electronic relaxation 2 (details)
   IALGO  =     38    algorithm
   LDIAG  =      T    sub-space diagonalisation (order eigenvalues)
   LSUBROT=      F    optimize rotation matrix (better conditioning)
   TURBO    =      0    0=normal 1=particle mesh
   IRESTART =      0    0=no restart 2=restart with 2 vectors
   NREBOOT  =      0    no. of reboots
   NMIN     =      0    reboot dimension
   EREF     =   0.00    reference energy to select bands
   IMIX   =      4    mixing-type and parameters
     AMIX     =   0.40;   BMIX     =  1.00
     AMIX_MAG =   1.60;   BMIX_MAG =  1.00
     AMIN     =   0.10
     WC   =   100.;   INIMIX=   1;  MIXPRE=   1;  MAXMIX= -45

 Intra band minimization:
   WEIMIN = 0.0000     energy-eigenvalue tresh-hold
   EBREAK =  0.45E-09  absolut break condition
   DEPER  =   0.30     relativ break condition  

   TIME   =   0.40     timestep for ELM

  volume/ion in A,a.u.               =      12.27        82.78
  Fermi-wavevector in a.u.,A,eV,Ry     =   1.498082  2.830964 30.534854  2.244248
  Thomas-Fermi vector in A             =   2.609887
 
 Write flags
   LWAVE  =      F    write WAVECAR
   LCHARG =      T    write CHGCAR
   LVTOT  =      F    write LOCPOT, total local potential
   LVHAR  =      F    write LOCPOT, Hartree potential only
   LELF   =      F    write electronic localiz. function (ELF)
   LORBIT =     11    0 simple, 1 ext, 2 COOP (PROOUT)


 Dipole corrections
   LMONO  =      F    monopole corrections only (constant potential shift)
   LDIPOL =      F    correct potential (dipole corrections)
   IDIPOL =      0    1-x, 2-y, 3-z, 4-all directions 
   EPSILON=  1.0000000 bulk dielectric constant

 LDA+U is selected, type is set to LDAUTYPE =  2
   angular momentum for each species LDAUL =    -1   -1    2
   U (eV)           for each species LDAUU =   0.0  0.0  6.0
   J (eV)           for each species LDAUJ =   0.0  0.0  0.0
 Exchange correlation treatment:
   GGA     =    PS    GGA type
   LEXCH   =    14    internal setting for exchange type
   VOSKOWN=      0    Vosko Wilk Nusair interpolation
   LHFCALC =     F    Hartree Fock is set to
   LHFONE  =     F    Hartree Fock one center treatment
   AEXX    =    0.0000 exact exchange contribution

 Linear response parameters
   LEPSILON=     F    determine dielectric tensor
   LRPA    =     F    only Hartree local field effects (RPA)
   LNABLA  =     F    use nabla operator in PAW spheres
   LVEL    =     F    velocity operator in full k-point grid
   LINTERFAST=   F  fast interpolation
   KINTER  =     0    interpolate to denser k-point grid
   CSHIFT  =0.1000    complex shift for real part using Kramers Kronig
   OMEGAMAX=  -1.0    maximum frequency
   DEG_THRESHOLD= 0.2000000E-02 threshold for treating states as degnerate
   RTIME   =    0.100 relaxation time in fs

 Orbital magnetization related:
   ORBITALMAG=     F  switch on orbital magnetization
   LCHIMAG   =     F  perturbation theory with respect to B field
   DQ        =  0.001000  dq finite difference perturbation B field

 PEAD related settings:
   LPEAD      =     T    switch on PEAD
   IPEAD      =     4    finite difference order for dpsi/dk
   LCALCPOL   =     T    calculate macroscopic polarization
   LCALCEPS   =     F    calculate dielectric tensor
   EFIELD_PEAD=    0.0000    0.0000    0.0000
   SKIP_EDOTP =     F
   LRPA       =     F
   SKIP_SCF   =     F


--------------------------------------------------------------------------------------------------------


 Static calculation
 charge density and potential will be updated during run
 spin polarized calculation
 Variant of blocked Davidson
 Davidson routine will perform the subspace rotation
 perform sub-space diagonalisation
    after iterative eigenvector-optimisation
 modified Broyden-mixing scheme, WC =      100.0
 initial mixing is a Kerker type mixing with AMIX =  0.4000 and BMIX =      1.0000
 Hartree-type preconditioning will be used
 using additional bands            9
 reciprocal scheme for non local part
 use partial core corrections
 calculate Harris-corrections to forces 
   (improved forces if not selfconsistent)
 use gradient corrections 
 use of overlap-Matrix (Vanderbilt PP)
 Gauss-broadening in eV      SIGMA  =   0.05


--------------------------------------------------------------------------------------------------------


  energy-cutoff  :      520.00
  volume of cell :      122.67
      direct lattice vectors                 reciprocal lattice vectors
     5.599802327 -0.019877971 -0.013957848     0.178015647 -0.106054151 -0.074468757
     2.861760707  4.813367521 -0.013957848     0.000549935  0.207211851 -0.074468757
     2.861760707  1.621192206  4.532155949     0.000549935  0.000311539  0.220186852

  length of vectors
     5.599855003  5.599855003  5.599855003     0.220187760  0.220187760  0.220187760


 
 k-points in units of 2pi/SCALE and weight: Gamma centred mesh                      
   0.00000000  0.00000000  0.00000000       0.002
   0.02225196 -0.01325677 -0.00930859       0.012
   0.04450391 -0.02651354 -0.01861719       0.012
   0.06675587 -0.03977031 -0.02792578       0.012
   0.08900782 -0.05302708 -0.03723438       0.006
   0.02232070  0.01264471 -0.01861719       0.012
   0.04457265 -0.00061206 -0.02792578       0.012
   0.06682461 -0.01386883 -0.03723438       0.012
   0.08907657 -0.02712559 -0.04654297       0.012
  -0.06668713  0.06567179  0.01861719       0.012
  -0.04443517  0.05241502  0.00930859       0.012
  -0.02218321  0.03915825  0.00000000       0.012
   0.02238944  0.03854619 -0.02792578       0.012
   0.04464140  0.02528942 -0.03723438       0.012
   0.06689335  0.01203266 -0.04654297       0.012
   0.08914531 -0.00122411 -0.05585157       0.012
  -0.06661838  0.09157327  0.00930859       0.012
  -0.04436643  0.07831650  0.00000000       0.012
  -0.02211447  0.06505973 -0.00930859       0.012
   0.02245818  0.06444768 -0.03723438       0.012
   0.04471014  0.05119091 -0.04654297       0.012
   0.06696209  0.03793414 -0.05585157       0.012
   0.08921405  0.02467737 -0.06516016       0.012
  -0.06654964  0.11747475  0.00000000       0.012
  -0.04429769  0.10421798 -0.00930859       0.012
  -0.02204573  0.09096121 -0.01861719       0.012
   0.02252692  0.09034916 -0.04654297       0.012
   0.04477888  0.07709239 -0.05585157       0.012
   0.06703084  0.06383562 -0.06516016       0.012
   0.08928279  0.05057885 -0.07446876       0.006
   0.02238944  0.01268365  0.00890617       0.004
   0.04464140 -0.00057311 -0.00040243       0.012
   0.06689335 -0.01382988 -0.00971102       0.012
   0.08914531 -0.02708665 -0.01901962       0.012
  -0.06661838  0.06571073  0.04614055       0.012
  -0.04436643  0.05245396  0.03683195       0.012
  -0.02211447  0.03919719  0.02752336       0.012
   0.04471014  0.02532837 -0.00971102       0.012
   0.06696209  0.01207160 -0.01901962       0.012
   0.08921405 -0.00118517 -0.02832821       0.012
  -0.06654964  0.09161221  0.03683195       0.012
  -0.04429769  0.07835544  0.02752336       0.012
  -0.02204573  0.06509867  0.01821476       0.012
   0.04477888  0.05122985 -0.01901962       0.012
   0.06703084  0.03797308 -0.02832821       0.012
   0.08928279  0.02471631 -0.03763681       0.012
  -0.06648090  0.11751369  0.02752336       0.012
  -0.04422894  0.10425692  0.01821476       0.012
  -0.02197699  0.09100016  0.00890617       0.012
   0.04484762  0.07713133 -0.02832821       0.012
   0.06709958  0.06387456 -0.03763681       0.012
   0.08935153  0.05061779 -0.04694540       0.012
  -0.06641216  0.14341517  0.01821476       0.012
  -0.04416020  0.13015841  0.00890617       0.012
  -0.02190825  0.11690164 -0.00040243       0.012
   0.04436643 -0.10417904  0.03683195       0.012
   0.06661838 -0.11743581  0.02752336       0.012
   0.08887034 -0.13069258  0.01821476       0.012
  -0.06689335 -0.03789519  0.08337492       0.012
  -0.04464140 -0.05115196  0.07406633       0.012
  -0.02238944 -0.06440873  0.06475774       0.012
   0.04443517 -0.07827756  0.02752336       0.012
   0.06668713 -0.09153433  0.01821476       0.012
   0.08893908 -0.10479110  0.00890617       0.012
  -0.06682461 -0.01199371  0.07406633       0.012
  -0.04457265 -0.02525048  0.06475774       0.012
  -0.02232070 -0.03850725  0.05544914       0.012
   0.04477888  0.02536731  0.01781233       0.004
   0.06703084  0.01211054  0.00850374       0.012
   0.08928279 -0.00114623 -0.00080485       0.012
  -0.06648090  0.09165115  0.06435531       0.012
  -0.04422894  0.07839439  0.05504671       0.012
   0.06709958  0.03801202 -0.00080485       0.012
   0.08935153  0.02475525 -0.01011345       0.012
  -0.06641216  0.11755264  0.05504671       0.012
  -0.04416020  0.10429587  0.04573812       0.012
   0.06716832  0.06391350 -0.01011345       0.012
   0.08942027  0.05065673 -0.01942204       0.012
  -0.06634342  0.14345412  0.04573812       0.012
  -0.04409146  0.13019735  0.03642952       0.012
   0.06668713 -0.11739687  0.05504671       0.012
   0.08893908 -0.13065364  0.04573812       0.012
  -0.06682461 -0.03785625  0.11089828       0.012
  -0.04457265 -0.05111302  0.10158969       0.012
   0.06716832  0.03805096  0.02671850       0.004
   0.08942027  0.02479420  0.01740991       0.012
  -0.06634342  0.11759158  0.08257007       0.012
   0.08948902  0.05069568  0.00810131       0.012
  -0.06627467  0.14349306  0.07326148       0.012
   0.08955776  0.05073462  0.03562467       0.002
 
 k-points in reciprocal lattice and weights: Gamma centred mesh                      
   0.00000000  0.00000000  0.00000000       0.002
   0.12500000  0.00000000  0.00000000       0.012
   0.25000000  0.00000000  0.00000000       0.012
   0.37500000 -0.00000000  0.00000000       0.012
   0.50000000  0.00000000  0.00000000       0.006
   0.12500000  0.12500000  0.00000000       0.012
   0.25000000  0.12500000  0.00000000       0.012
   0.37500000  0.12500000  0.00000000       0.012
   0.50000000  0.12500000  0.00000000       0.012
  -0.37500000  0.12500000 -0.00000000       0.012
  -0.25000000  0.12500000 -0.00000000       0.012
  -0.12500000  0.12500000 -0.00000000       0.012
   0.12500000  0.25000000  0.00000000       0.012
   0.25000000  0.25000000  0.00000000       0.012
   0.37500000  0.25000000  0.00000000       0.012
   0.50000000  0.25000000  0.00000000       0.012
  -0.37500000  0.25000000 -0.00000000       0.012
  -0.25000000  0.25000000 -0.00000000       0.012
  -0.12500000  0.25000000 -0.00000000       0.012
   0.12500000  0.37500000  0.00000000       0.012
   0.25000000  0.37500000  0.00000000       0.012
   0.37500000  0.37500000  0.00000000       0.012
   0.50000000  0.37500000  0.00000000       0.012
  -0.37500000  0.37500000 -0.00000000       0.012
  -0.25000000  0.37500000 -0.00000000       0.012
  -0.12500000  0.37500000 -0.00000000       0.012
   0.12500000  0.50000000 -0.00000000       0.012
   0.25000000  0.50000000  0.00000000       0.012
   0.37500000  0.50000000  0.00000000       0.012
   0.50000000  0.50000000  0.00000000       0.006
   0.12500000  0.12500000  0.12500000       0.004
   0.25000000  0.12500000  0.12500000       0.012
   0.37500000  0.12500000  0.12500000       0.012
   0.50000000  0.12500000  0.12500000       0.012
  -0.37500000  0.12500000  0.12500000       0.012
  -0.25000000  0.12500000  0.12500000       0.012
  -0.12500000  0.12500000  0.12500000       0.012
   0.25000000  0.25000000  0.12500000       0.012
   0.37500000  0.25000000  0.12500000       0.012
   0.50000000  0.25000000  0.12500000       0.012
  -0.37500000  0.25000000  0.12500000       0.012
  -0.25000000  0.25000000  0.12500000       0.012
  -0.12500000  0.25000000  0.12500000       0.012
   0.25000000  0.37500000  0.12500000       0.012
   0.37500000  0.37500000  0.12500000       0.012
   0.50000000  0.37500000  0.12500000       0.012
  -0.37500000  0.37500000  0.12500000       0.012
  -0.25000000  0.37500000  0.12500000       0.012
  -0.12500000  0.37500000  0.12500000       0.012
   0.25000000  0.50000000  0.12500000       0.012
   0.37500000  0.50000000  0.12500000       0.012
   0.50000000  0.50000000  0.12500000       0.012
  -0.37500000  0.50000000  0.12500000       0.012
  -0.25000000  0.50000000  0.12500000       0.012
  -0.12500000  0.50000000  0.12500000       0.012
   0.25000000 -0.37500000  0.12500000       0.012
   0.37500000 -0.37500000  0.12500000       0.012
   0.50000000 -0.37500000  0.12500000       0.012
  -0.37500000 -0.37500000  0.12500000       0.012
  -0.25000000 -0.37500000  0.12500000       0.012
  -0.12500000 -0.37500000  0.12500000       0.012
   0.25000000 -0.25000000  0.12500000       0.012
   0.37500000 -0.25000000  0.12500000       0.012
   0.50000000 -0.25000000  0.12500000       0.012
  -0.37500000 -0.25000000  0.12500000       0.012
  -0.25000000 -0.25000000  0.12500000       0.012
  -0.12500000 -0.25000000  0.12500000       0.012
   0.25000000  0.25000000  0.25000000       0.004
   0.37500000  0.25000000  0.25000000       0.012
   0.50000000  0.25000000  0.25000000       0.012
  -0.37500000  0.25000000  0.25000000       0.012
  -0.25000000  0.25000000  0.25000000       0.012
   0.37500000  0.37500000  0.25000000       0.012
   0.50000000  0.37500000  0.25000000       0.012
  -0.37500000  0.37500000  0.25000000       0.012
  -0.25000000  0.37500000  0.25000000       0.012
   0.37500000  0.50000000  0.25000000       0.012
   0.50000000  0.50000000  0.25000000       0.012
  -0.37500000  0.50000000  0.25000000       0.012
  -0.25000000  0.50000000  0.25000000       0.012
   0.37500000 -0.37500000  0.25000000       0.012
   0.50000000 -0.37500000  0.25000000       0.012
  -0.37500000 -0.37500000  0.25000000       0.012
  -0.25000000 -0.37500000  0.25000000       0.012
   0.37500000  0.37500000  0.37500000       0.004
   0.50000000  0.37500000  0.37500000       0.012
  -0.37500000  0.37500000  0.37500000       0.012
   0.50000000  0.50000000  0.37500000       0.012
  -0.37500000  0.50000000  0.37500000       0.012
   0.50000000  0.50000000  0.50000000       0.002
 
 position of ions in fractional coordinates (direct lattice) 
   0.27601345  0.27601348  0.27601333
   0.77602072  0.77602543  0.77602161
   0.67157736  0.21655927  0.81398522
   0.21655985  0.81398349  0.67157790
   0.81398522  0.67157724  0.21656068
   0.31400709  0.71654395  0.17156951
   0.17156957  0.31400524  0.71654484
   0.71654604  0.17156925  0.31400614
   0.49924010  0.49923974  0.49923879
   0.99923749  0.99923724  0.99923724
 
 position of ions in cartesian coordinates  (Angst):
   3.12538935  1.77053837  1.24323033
   8.78714985  4.97795005  3.49538774
   6.70987218  2.34865624  3.67671146
   5.46401354  5.00245376  3.02931159
   7.09979452  3.56745420  0.96075154
   4.29994584  3.72089470  0.76319549
   3.90994340  2.66966910  3.24071540
   5.40211674  1.32064669  1.41072860
   5.65305248  3.20246250  2.24869141
  11.31468813  6.40978887  4.50080458
 


--------------------------------------------------------------------------------------------------------


 k-point  1 :   0.0000 0.0000 0.0000  plane waves:    3311
 k-point  2 :   0.1250 0.0000 0.0000  plane waves:    3313
 k-point  3 :   0.2500 0.0000 0.0000  plane waves:    3314
 k-point  4 :   0.3750-0.0000 0.0000  plane waves:    3308
 k-point  5 :   0.5000 0.0000 0.0000  plane waves:    3308
 k-point  6 :   0.1250 0.1250 0.0000  plane waves:    3311
 k-point  7 :   0.2500 0.1250 0.0000  plane waves:    3307
 k-point  8 :   0.3750 0.1250 0.0000  plane waves:    3307
 k-point  9 :   0.5000 0.1250 0.0000  plane waves:    3300
 k-point 10 :  -0.3750 0.1250-0.0000  plane waves:    3302
 k-point 11 :  -0.2500 0.1250-0.0000  plane waves:    3314
 k-point 12 :  -0.1250 0.1250-0.0000  plane waves:    3317
 k-point 13 :   0.1250 0.2500 0.0000  plane waves:    3307
 k-point 14 :   0.2500 0.2500 0.0000  plane waves:    3312
 k-point 15 :   0.3750 0.2500 0.0000  plane waves:    3307
 k-point 16 :   0.5000 0.2500 0.0000  plane waves:    3304
 k-point 17 :  -0.3750 0.2500-0.0000  plane waves:    3298
 k-point 18 :  -0.2500 0.2500-0.0000  plane waves:    3310
 k-point 19 :  -0.1250 0.2500-0.0000  plane waves:    3314
 k-point 20 :   0.1250 0.3750 0.0000  plane waves:    3307
 k-point 21 :   0.2500 0.3750 0.0000  plane waves:    3307
 k-point 22 :   0.3750 0.3750 0.0000  plane waves:    3318
 k-point 23 :   0.5000 0.3750 0.0000  plane waves:    3299
 k-point 24 :  -0.3750 0.3750-0.0000  plane waves:    3296
 k-point 25 :  -0.2500 0.3750-0.0000  plane waves:    3298
 k-point 26 :  -0.1250 0.3750-0.0000  plane waves:    3302
 k-point 27 :   0.1250 0.5000-0.0000  plane waves:    3300
 k-point 28 :   0.2500 0.5000 0.0000  plane waves:    3304
 k-point 29 :   0.3750 0.5000 0.0000  plane waves:    3299
 k-point 30 :   0.5000 0.5000 0.0000  plane waves:    3308
 k-point 31 :   0.1250 0.1250 0.1250  plane waves:    3314
 k-point 32 :   0.2500 0.1250 0.1250  plane waves:    3310
 k-point 33 :   0.3750 0.1250 0.1250  plane waves:    3319
 k-point 34 :   0.5000 0.1250 0.1250  plane waves:    3305
 k-point 35 :  -0.3750 0.1250 0.1250  plane waves:    3298
 k-point 36 :  -0.2500 0.1250 0.1250  plane waves:    3309
 k-point 37 :  -0.1250 0.1250 0.1250  plane waves:    3303
 k-point 38 :   0.2500 0.2500 0.1250  plane waves:    3310
 k-point 39 :   0.3750 0.2500 0.1250  plane waves:    3306
 k-point 40 :   0.5000 0.2500 0.1250  plane waves:    3308
 k-point 41 :  -0.3750 0.2500 0.1250  plane waves:    3298
 k-point 42 :  -0.2500 0.2500 0.1250  plane waves:    3301
 k-point 43 :  -0.1250 0.2500 0.1250  plane waves:    3313
 k-point 44 :   0.2500 0.3750 0.1250  plane waves:    3306
 k-point 45 :   0.3750 0.3750 0.1250  plane waves:    3299
 k-point 46 :   0.5000 0.3750 0.1250  plane waves:    3300
 k-point 47 :  -0.3750 0.3750 0.1250  plane waves:    3305
 k-point 48 :  -0.2500 0.3750 0.1250  plane waves:    3295
 k-point 49 :  -0.1250 0.3750 0.1250  plane waves:    3303
 k-point 50 :   0.2500 0.5000 0.1250  plane waves:    3308
 k-point 51 :   0.3750 0.5000 0.1250  plane waves:    3300
 k-point 52 :   0.5000 0.5000 0.1250  plane waves:    3290
 k-point 53 :  -0.3750 0.5000 0.1250  plane waves:    3306
 k-point 54 :  -0.2500 0.5000 0.1250  plane waves:    3298
 k-point 55 :  -0.1250 0.5000 0.1250  plane waves:    3288
 k-point 56 :   0.2500-0.3750 0.1250  plane waves:    3298
 k-point 57 :   0.3750-0.3750 0.1250  plane waves:    3305
 k-point 58 :   0.5000-0.3750 0.1250  plane waves:    3306
 k-point 59 :  -0.3750-0.3750 0.1250  plane waves:    3308
 k-point 60 :  -0.2500-0.3750 0.1250  plane waves:    3311
 k-point 61 :  -0.1250-0.3750 0.1250  plane waves:    3303
 k-point 62 :   0.2500-0.2500 0.1250  plane waves:    3301
 k-point 63 :   0.3750-0.2500 0.1250  plane waves:    3295
 k-point 64 :   0.5000-0.2500 0.1250  plane waves:    3298
 k-point 65 :  -0.3750-0.2500 0.1250  plane waves:    3311
 k-point 66 :  -0.2500-0.2500 0.1250  plane waves:    3312
 k-point 67 :  -0.1250-0.2500 0.1250  plane waves:    3313
 k-point 68 :   0.2500 0.2500 0.2500  plane waves:    3311
 k-point 69 :   0.3750 0.2500 0.2500  plane waves:    3307
 k-point 70 :   0.5000 0.2500 0.2500  plane waves:    3309
 k-point 71 :  -0.3750 0.2500 0.2500  plane waves:    3287
 k-point 72 :  -0.2500 0.2500 0.2500  plane waves:    3309
 k-point 73 :   0.3750 0.3750 0.2500  plane waves:    3313
 k-point 74 :   0.5000 0.3750 0.2500  plane waves:    3303
 k-point 75 :  -0.3750 0.3750 0.2500  plane waves:    3293
 k-point 76 :  -0.2500 0.3750 0.2500  plane waves:    3299
 k-point 77 :   0.3750 0.5000 0.2500  plane waves:    3303
 k-point 78 :   0.5000 0.5000 0.2500  plane waves:    3288
 k-point 79 :  -0.3750 0.5000 0.2500  plane waves:    3296
 k-point 80 :  -0.2500 0.5000 0.2500  plane waves:    3296
 k-point 81 :   0.3750-0.3750 0.2500  plane waves:    3293
 k-point 82 :   0.5000-0.3750 0.2500  plane waves:    3296
[...]
     47       6.3353      1.00000
     48       9.0991      0.00000
     49       9.3415      0.00000
     50       9.3976      0.00000
     51       9.7491      0.00000
     52       9.9589      0.00000
     53      10.1708      0.00000
     54      10.4850      0.00000
     55      11.4944      0.00000
     56      11.5690      0.00000

 k-point    90 :       0.5000    0.5000    0.5000
  band No.  band energies     occupation 
      1     -50.5867      1.00000
      2     -50.5314      1.00000
      3     -50.5313      1.00000
      4     -45.7366      1.00000
      5     -45.6946      1.00000
      6     -45.6946      1.00000
      7     -15.5492      1.00000
      8     -15.5491      1.00000
      9     -15.5468      1.00000
     10     -15.5468      1.00000
     11     -15.5042      1.00000
     12     -15.5027      1.00000
     13     -15.4743      1.00000
     14     -15.4743      1.00000
     15     -15.4733      1.00000
     16     -15.4733      1.00000
     17     -11.4508      1.00000
     18     -11.3954      1.00000
     19     -10.3351      1.00000
     20     -10.3350      1.00000
     21     -10.1765      1.00000
     22     -10.1764      1.00000
     23      -3.1418      1.00000
     24      -3.0364      1.00000
     25      -1.2482      1.00000
     26      -1.2482      1.00000
     27      -0.9469      1.00000
     28      -0.9469      1.00000
     29      -0.7564      1.00000
     30       1.5519      1.00000
     31       1.8922      1.00000
     32       1.8923      1.00000
     33       1.8971      1.00000
     34       2.6825      1.00000
     35       2.6826      1.00000
     36       3.3908      1.00000
     37       3.3909      1.00000
     38       3.8897      1.00000
     39       4.0361      1.00000
     40       4.4287      1.00000
     41       4.4288      1.00000
     42       4.8316      1.00000
     43       4.8317      1.00000
     44       5.8343      1.00000
     45       5.8343      1.00000
     46       6.0251      1.00000
     47       6.3416      1.00000
     48       8.9576      0.00000
     49       9.3657      0.00000
     50       9.3658      0.00000
     51       9.9036      0.00000
     52       9.9575      0.00000
     53       9.9575      0.00000
     54      10.3827      0.00000
     55      12.0551      0.00000
     56      12.0700      0.00000


--------------------------------------------------------------------------------------------------------


 soft charge-density along one line, spin component           1
         0         1         2         3         4         5         6         7         8         9
 total charge-density along one line
 
 soft charge-density along one line, spin component           2
         0         1         2         3         4         5         6         7         8         9
 total charge-density along one line
 
 pseudopotential strength for first ion, spin component:           1
-16.933   0.000  -0.003  -0.001  -0.009   3.413   0.000   0.001
  0.000 -16.943   0.012   0.011   0.000   0.000   3.417  -0.006
 -0.003   0.012 -16.941   0.003  -0.009   0.001  -0.006   3.417
 -0.001   0.011   0.003 -16.947   0.008   0.001  -0.005  -0.002
 -0.009   0.000  -0.009   0.008 -16.940   0.005  -0.000   0.005
  3.413   0.000   0.001   0.001   0.005   6.055   0.001  -0.001
  0.000   3.417  -0.006  -0.005  -0.000   0.001   6.053   0.001
  0.001  -0.006   3.417  -0.002   0.005  -0.001   0.001   6.054
  0.001  -0.005  -0.002   3.420  -0.004   0.000   0.002   0.001
  0.005  -0.000   0.005  -0.004   3.416  -0.001  -0.000  -0.001
  0.003   0.001  -0.002   0.002   0.002  -0.001  -0.000   0.001
 -0.005  -0.002   0.003  -0.004  -0.003   0.002   0.001  -0.001
  0.014   0.005  -0.005   0.000  -0.008  -0.002  -0.001   0.001
  0.000   0.007   0.006   0.014   0.000  -0.000  -0.001  -0.001
  0.008   0.000  -0.008   0.005   0.014  -0.001  -0.000   0.001
  0.022   0.009  -0.009   0.001  -0.013  -0.000   0.000   0.001
  0.001   0.012   0.011   0.023   0.000  -0.000   0.000  -0.001
  0.013   0.001  -0.013   0.009   0.023   0.000  -0.000  -0.000
 pseudopotential strength for first ion, spin component:           2
-16.933   0.000  -0.003  -0.001  -0.009   3.413   0.000   0.001
  0.000 -16.942   0.012   0.010   0.000   0.000   3.417  -0.006
 -0.003   0.012 -16.941   0.003  -0.009   0.001  -0.006   3.416
 -0.001   0.010   0.003 -16.947   0.008   0.001  -0.005  -0.001
 -0.009   0.000  -0.009   0.008 -16.940   0.005  -0.000   0.004
  3.413   0.000   0.001   0.001   0.005   6.055   0.001  -0.001
  0.000   3.417  -0.006  -0.005  -0.000   0.001   6.053   0.001
  0.001  -0.006   3.416  -0.001   0.004  -0.001   0.001   6.054
  0.001  -0.005  -0.001   3.420  -0.004   0.000   0.002   0.001
  0.005  -0.000   0.004  -0.004   3.416  -0.001  -0.000  -0.001
  0.003   0.001  -0.002   0.002   0.002  -0.001  -0.000   0.000
 -0.005  -0.002   0.003  -0.004  -0.003   0.001   0.001  -0.001
  0.014   0.005  -0.005   0.000  -0.008  -0.002  -0.001   0.001
  0.000   0.007   0.006   0.014   0.000   0.000  -0.001  -0.001
  0.008   0.000  -0.008   0.005   0.014  -0.001   0.000   0.001
  0.022   0.009  -0.009   0.001  -0.013  -0.001  -0.000   0.001
  0.001   0.012   0.011   0.023   0.000  -0.000  -0.000  -0.001
  0.013   0.001  -0.013   0.009   0.023  -0.000  -0.000   0.000
 total augmentation occupancy for first ion, spin component:           1
  2.001   0.000  -0.000   0.000   0.000  -0.000   0.001  -0.001   0.001   0.001   0.001   0.002  -0.018  -0.002  -0.014   0.009
  0.000   2.001  -0.001  -0.000  -0.000   0.001  -0.001  -0.002  -0.000  -0.000   0.000   0.001  -0.009  -0.007  -0.002   0.004
 -0.000  -0.001   2.001   0.000   0.000  -0.001  -0.002  -0.001   0.000   0.001  -0.001  -0.001   0.011  -0.010   0.010  -0.002
  0.000  -0.000   0.000   2.002  -0.000   0.001  -0.000   0.000   0.001  -0.000   0.001   0.001  -0.002  -0.022  -0.007  -0.001
  0.000  -0.000   0.000  -0.000   2.001   0.001  -0.000   0.001  -0.000   0.001   0.001   0.001   0.012   0.000  -0.022  -0.005
 -0.000   0.001  -0.001   0.001   0.001   0.048  -0.006   0.006  -0.005  -0.015   0.010  -0.003   0.034   0.019   0.033  -0.004
  0.001  -0.001  -0.002  -0.000  -0.000  -0.006   0.046   0.018   0.009   0.005   0.004  -0.001   0.010  -0.004   0.020  -0.001
 -0.001  -0.002  -0.001   0.000   0.001   0.006   0.018   0.046   0.001  -0.009  -0.005   0.002  -0.040   0.036  -0.023   0.004
  0.001  -0.000   0.000   0.001  -0.000  -0.005   0.009   0.001   0.027   0.007   0.007  -0.002   0.021   0.051   0.010  -0.003
  0.001  -0.000   0.001  -0.000   0.001  -0.015   0.005  -0.009   0.007   0.036   0.006  -0.002  -0.035   0.002   0.055   0.004
  0.001   0.000  -0.001   0.001   0.001   0.010   0.004  -0.005   0.007   0.006   2.023  -0.042  -0.061  -0.043  -0.108   0.001
  0.002   0.001  -0.001   0.001   0.001  -0.003  -0.001   0.002  -0.002  -0.002  -0.042   0.036   0.039   0.028   0.070  -0.003
 -0.018  -0.009   0.011  -0.002   0.012   0.034   0.010  -0.040   0.021  -0.035  -0.061   0.039   0.901   0.016   0.040  -0.086
 -0.002  -0.007  -0.010  -0.022   0.000   0.019  -0.004   0.036   0.051   0.002  -0.043   0.028   0.016   0.889   0.028  -0.001
 -0.014  -0.002   0.010  -0.007  -0.022   0.033   0.020  -0.023   0.010   0.055  -0.108   0.070   0.040   0.028   0.948  -0.003
  0.009   0.004  -0.002  -0.001  -0.005  -0.004  -0.001   0.004  -0.003   0.004   0.001  -0.003  -0.086  -0.001  -0.003   0.010
 -0.001   0.006   0.003   0.009  -0.000  -0.002  -0.000  -0.004  -0.006  -0.000   0.001  -0.002  -0.001  -0.085  -0.002   0.000
  0.005  -0.001  -0.005   0.004   0.009  -0.004  -0.002   0.003  -0.002  -0.006   0.003  -0.006  -0.003  -0.002  -0.090   0.000
 total augmentation occupancy for first ion, spin component:           2
 -0.000  -0.000   0.000  -0.000  -0.000  -0.000  -0.000   0.000  -0.000  -0.000  -0.000  -0.000   0.000   0.000   0.000   0.000
 -0.000   0.000  -0.000  -0.000   0.000  -0.000  -0.000   0.000  -0.000   0.000  -0.000  -0.000   0.000   0.000  -0.000   0.000
  0.000  -0.000  -0.000  -0.000   0.000   0.000   0.000  -0.000   0.000   0.000   0.000   0.000  -0.000   0.000  -0.000  -0.000
 -0.000  -0.000  -0.000  -0.000  -0.000  -0.000  -0.000   0.000  -0.000  -0.000  -0.000  -0.000  -0.000   0.000   0.000  -0.000
 -0.000   0.000   0.000  -0.000  -0.000  -0.000   0.000   0.000  -0.000  -0.000  -0.000  -0.000  -0.000  -0.000   0.000   0.000
 -0.000  -0.000   0.000  -0.000  -0.000   0.000  -0.000   0.000  -0.000   0.000   0.000  -0.000  -0.001  -0.000  -0.001   0.000
 -0.000  -0.000   0.000  -0.000   0.000  -0.000   0.000  -0.000  -0.000  -0.000   0.000  -0.000  -0.001  -0.001   0.000   0.000
  0.000   0.000  -0.000   0.000   0.000   0.000  -0.000   0.000  -0.000   0.000  -0.000   0.000   0.000   0.001   0.000  -0.000
 -0.000  -0.000   0.000  -0.000  -0.000  -0.000  -0.000  -0.000   0.000   0.000   0.000  -0.000   0.001  -0.001  -0.001  -0.000
 -0.000   0.000   0.000  -0.000  -0.000   0.000  -0.000   0.000   0.000  -0.000   0.000  -0.000  -0.000   0.001  -0.001   0.000
 -0.000  -0.000   0.000  -0.000  -0.000   0.000   0.000  -0.000   0.000   0.000   0.000  -0.000   0.001   0.001   0.002   0.000
 -0.000  -0.000   0.000  -0.000  -0.000  -0.000  -0.000   0.000  -0.000  -0.000  -0.000   0.000  -0.001  -0.001  -0.002  -0.000
  0.000   0.000  -0.000  -0.000  -0.000  -0.001  -0.001   0.000   0.001  -0.000   0.001  -0.001  -0.001  -0.001  -0.003  -0.000
  0.000   0.000   0.000   0.000  -0.000  -0.000  -0.001   0.001  -0.001   0.001   0.001  -0.001  -0.001  -0.000  -0.002   0.000
  0.000  -0.000  -0.000   0.000   0.000  -0.001   0.000   0.000  -0.001  -0.001   0.002  -0.002  -0.003  -0.002  -0.005   0.000
  0.000   0.000  -0.000  -0.000   0.000   0.000   0.000  -0.000  -0.000   0.000   0.000  -0.000  -0.000   0.000   0.000   0.000
 -0.000   0.000  -0.000   0.000  -0.000   0.000   0.000  -0.000   0.000  -0.000   0.000  -0.000   0.000  -0.000   0.000  -0.000
  0.000  -0.000  -0.000   0.000   0.000   0.000  -0.000  -0.000   0.000   0.000   0.000  -0.000   0.000   0.000   0.000  -0.000


------------------------ aborting loop because EDIFF is reached ----------------------------------------


     CALCP:  cpu time  169.7523: real time  169.7020
 
            Ionic dipole moment: p[ion]=(    -2.21162    -1.25298    -0.87973 ) electrons Angst
 
    Spin resolved dipole moment: p[sp1]=(    -1.76467    -0.99966    -0.70199 ) electrons Angst
                                 p[sp2]=(     3.89688     2.20790     1.54963 ) electrons Angst
 
 Total electronic dipole moment: p[elc]=(     2.13221     1.20824     0.84765 ) electrons Angst
 
 
 


 total charge     
 
# of ion     s       p       d       tot
----------------------------------------
  1        1.646   0.855  10.025  12.526
  2        1.646   0.855  10.025  12.526
  3        1.566   3.478   0.000   5.043
  4        1.565   3.440   0.000   5.005
  5        1.567   3.355   0.000   4.922
  6        1.565   3.457   0.000   5.022
  7        1.567   3.354   0.000   4.921
  8        1.566   3.461   0.000   5.027
  9        0.310   6.386   5.640  12.336
 10        0.309   6.386   5.640  12.335
------------------------------------------------
tot       13.308  35.025  31.330  79.662
 


 magnetization (x)
 
# of ion     s       p       d       tot
----------------------------------------
  1        0.001  -0.002   0.001  -0.001
  2       -0.001   0.002  -0.001   0.001
  3        0.001   0.023   0.000   0.024
  4        0.001   0.028   0.000   0.028
  5        0.000   0.032   0.000   0.032
  6       -0.000  -0.029   0.000  -0.029
  7       -0.000  -0.030   0.000  -0.031
  8       -0.001  -0.024   0.000  -0.025
  9        0.013   0.021   4.215   4.249
 10       -0.013  -0.021  -4.215  -4.249
------------------------------------------------
tot        0.000  -0.000  -0.000  -0.000
 
    CHARGE:  cpu time    0.9803: real time    0.9800
    FORLOC:  cpu time    0.0059: real time    0.0059
    FORNL :  cpu time    9.0036: real time    9.0004
    STRESS:  cpu time   10.8144: real time   10.8106
    FORCOR:  cpu time    0.0867: real time    0.0866
    FORHAR:  cpu time    0.0123: real time    0.0123
    MIXING:  cpu time    0.0035: real time    0.0044
    OFIELD:  cpu time    0.0001: real time    0.0001

  FORCE on cell =-STRESS in cart. coord.  units (eV):
  Direction    XX          YY          ZZ          XY          YZ          ZX
  --------------------------------------------------------------------------------------
  Alpha Z   418.78782   418.78782   418.78782
  Ewald   -2823.53865 -2796.81395 -2790.40815   -22.29484    -8.87304   -15.65359
  Hartree   952.27647   971.95944   976.67679   -16.42122    -6.53383   -11.52980
  E(xc)    -499.82492  -499.77675  -499.76520    -0.04019    -0.01599    -0.02822
  Local       6.71999   -41.31090   -52.82303    40.07086    15.94564    28.13424
  n-local     9.94824     8.90066     9.62039     1.15945     0.45646     1.29453
  augment   592.46242   593.81451   594.13855    -1.12812    -0.44877    -0.79206
  Kinetic  1344.04660  1343.98028  1343.25447    -0.37595    -0.86882    -3.48390
  Fock        0.00000     0.00000     0.00000     0.00000     0.00000     0.00000
  -------------------------------------------------------------------------------------
  Total      -0.03260    -0.03327    -0.03343     0.00056     0.00022     0.00039
  in kB      -0.42580    -0.43451    -0.43660     0.00727     0.00289     0.00510
  external pressure =       -0.43 kB  Pullay stress =        0.00 kB


 VOLUME and BASIS-vectors are now :
 -----------------------------------------------------------------------------
  energy-cutoff  :      520.00
  volume of cell :      122.67
      direct lattice vectors                 reciprocal lattice vectors
     5.599802327 -0.019877971 -0.013957848     0.178015647 -0.106054151 -0.074468757
     2.861760707  4.813367521 -0.013957848     0.000549935  0.207211851 -0.074468757
     2.861760707  1.621192206  4.532155949     0.000549935  0.000311539  0.220186852

  length of vectors
     5.599855003  5.599855003  5.599855003     0.220187760  0.220187760  0.220187760


 FORCES acting on ions
    electron-ion (+dipol)            ewald-force                    non-local-force                 convergence-correction
 -----------------------------------------------------------------------------------------------
   0.183E+03 0.104E+03 0.728E+02   -.192E+03 -.109E+03 -.762E+02   0.843E+01 0.478E+01 0.335E+01   -.198E-04 -.792E-05 0.174E-05
   0.183E+03 0.104E+03 0.729E+02   -.192E+03 -.109E+03 -.762E+02   0.843E+01 0.478E+01 0.335E+01   -.908E-05 0.581E-05 -.102E-04
   0.206E+01 -.585E+02 -.215E+02   0.889E+00 0.617E+02 0.225E+02   -.295E+01 -.318E+01 -.108E+01   0.136E-05 -.284E-06 0.185E-04
   -.491E+02 -.937E+01 0.372E+02   0.534E+02 0.107E+02 -.368E+02   -.425E+01 -.132E+01 -.475E+00   -.223E-05 0.253E-04 -.135E-04
   -.333E+02 0.224E+02 -.477E+02   0.366E+02 -.209E+02 0.504E+02   -.332E+01 -.145E+01 -.263E+01   0.159E-04 -.135E-04 -.365E-05
   -.333E+02 -.373E+02 0.373E+02   0.366E+02 0.403E+02 -.368E+02   -.332E+01 -.296E+01 -.475E+00   -.125E-04 0.338E-05 0.319E-05
   0.210E+01 -.400E+02 -.477E+02   0.850E+00 0.421E+02 0.504E+02   -.295E+01 -.210E+01 -.262E+01   -.898E-05 -.177E-04 -.767E-06
   -.491E+02 0.319E+02 -.214E+02   0.533E+02 -.310E+02 0.225E+02   -.424E+01 -.896E+00 -.108E+01   -.188E-05 0.847E-06 -.128E-04
   -.994E+02 -.563E+02 -.395E+02   0.101E+03 0.571E+02 0.401E+02   -.133E+01 -.756E+00 -.531E+00   0.809E-05 -.105E-04 -.103E-04
   -.995E+02 -.563E+02 -.396E+02   0.101E+03 0.571E+02 0.401E+02   -.134E+01 -.756E+00 -.531E+00   0.175E-05 0.823E-05 -.140E-06
 -----------------------------------------------------------------------------------------------
   0.683E+01 0.388E+01 0.272E+01   0.426E-13 0.000E+00 -.284E-13   -.683E+01 -.387E+01 -.272E+01   -.273E-04 -.643E-05 -.280E-04
 
 
 POSITION                                       TOTAL-FORCE (eV/Angst)
 -----------------------------------------------------------------------------------
      3.12539      1.77054      1.24323        -0.000692     -0.000392     -0.000275
      8.78715      4.97795      3.49539        -0.002373     -0.001344     -0.000944
      6.70987      2.34866      3.67671         0.000697      0.000231      0.000632
      5.46401      5.00245      3.02931         0.000556      0.000757      0.000236
      7.09979      3.56745      0.96075         0.000935      0.000252      0.000002
      4.29995      3.72089      0.76320        -0.000267      0.000849     -0.000110
      3.90994      2.66967      3.24072         0.000021     -0.000324      0.000836
      5.40212      1.32065      1.41073         0.000591     -0.000330     -0.000589
      5.65305      3.20246      2.24869        -0.000390     -0.000221     -0.000155
     11.31469      6.40979      4.50080         0.000923      0.000523      0.000367
 -----------------------------------------------------------------------------------
    total drift:                                0.000863      0.012244      0.000312


--------------------------------------------------------------------------------------------------------



  FREE ENERGIE OF THE ION-ELECTRON SYSTEM (eV)
  ---------------------------------------------------
  free  energy   TOTEN  =       -65.54873637 eV

  energy  without entropy=      -65.54873637  energy(sigma->0) =      -65.54873637
 


--------------------------------------------------------------------------------------------------------


    POTLOK:  cpu time    1.5813: real time    1.5808


--------------------------------------------------------------------------------------------------------


     LOOP+:  cpu time  547.9028: real time  548.3810
    4ORBIT:  cpu time    0.0000: real time    0.0000
 


 total charge     
 
# of ion     s       p       d       tot
----------------------------------------
  1        1.646   0.855  10.025  12.526
  2        1.646   0.855  10.025  12.526
  3        1.566   3.478   0.000   5.043
  4        1.565   3.440   0.000   5.005
  5        1.567   3.355   0.000   4.922
  6        1.565   3.457   0.000   5.022
  7        1.567   3.354   0.000   4.921
  8        1.566   3.461   0.000   5.027
  9        0.310   6.386   5.640  12.336
 10        0.309   6.386   5.640  12.335
------------------------------------------------
tot       13.308  35.025  31.330  79.662
 


 magnetization (x)
 
# of ion     s       p       d       tot
----------------------------------------
  1        0.001  -0.002   0.001  -0.001
  2       -0.001   0.002  -0.001   0.001
  3        0.001   0.023   0.000   0.024
  4        0.001   0.028   0.000   0.028
  5        0.000   0.032   0.000   0.032
  6       -0.000  -0.029   0.000  -0.029
  7       -0.000  -0.030   0.000  -0.031
  8       -0.001  -0.024   0.000  -0.025
  9        0.013   0.021   4.215   4.249
 10       -0.013  -0.021  -4.215  -4.249
------------------------------------------------
tot        0.000  -0.000  -0.000  -0.000
 

 total amount of memory used by VASP on root node   309592. kBytes
========================================================================

   base      :      30000. kBytes
   nonl-proj :     129612. kBytes
   fftplans  :       2401. kBytes
   grid      :       8568. kBytes
   one-center:        311. kBytes
   wavefun   :     138700. kBytes
 
  
  
 General timing and accounting informations for this job:
 ========================================================
  
                  Total CPU time used (sec):      561.656
                            User time (sec):      553.133
                          System time (sec):        8.522
                         Elapsed time (sec):      563.426
  
                   Maximum memory used (kb):      408920.
                   Average memory used (kb):           0.
  
                          Minor page faults:       680953
                          Major page faults:           37
                 Voluntary context switches:          867
