 vasp.5.4.1 24Jun15 (build Jul 08 2015 18:11:14) complex                        
  
 executed on           IFC91_ompi date 2016.01.20  03:32:10
 running on    4 total cores
 distrk:  each k-point on    4 cores,    1 groups
 distr:  one band on NCORES_PER_BAND=   1 cores,    4 groups


--------------------------------------------------------------------------------------------------------


 INCAR:
 POTCAR:    PAW_PBE Bi_d 06Sep2000                
 POTCAR:    PAW_PBE O 08Apr2002                   
 POTCAR:    PAW_PBE Fe_pv 02Aug2007               
 POTCAR:    PAW_PBE Bi_d 06Sep2000                
   VRHFIN =Bi:                                                                  
   LEXCH  = PE                                                                  
   EATOM  =  1959.2045 eV,  143.9975 Ry                                         
                                                                                
   TITEL  = PAW_PBE Bi_d 06Sep2000                                              
   LULTRA =        F    use ultrasoft PP ?                                      
   IUNSCR =        1    unscreen: 0-lin 1-nonlin 2-no                           
   RPACOR =    2.200    partial core radius                                     
   POMASS =  208.980; ZVAL   =   15.000    mass and valenz                      
   RCORE  =    2.500    outmost cutoff radius                                   
   RWIGS  =    3.090; RWIGS  =    1.635    wigner-seitz radius (au A)           
   ENMAX  =  242.839; ENMIN  =  182.129 eV                                      
   ICORE  =        3    local potential                                         
   LCOR   =        T    correct aug charges                                     
   LPAW   =        T    paw PP                                                  
   EAUG   =  442.899                                                            
   DEXC   =    0.000                                                            
   RMAX   =    2.551    core radius for proj-oper                               
   RAUG   =    1.300    factor for augmentation sphere                          
   RDEP   =    2.650    radius for radial grids                                 
   RDEPT  =    2.039    core radius for aug-charge                              
                                                                                
   Atomic configuration                                                         
   16 entries                                                                   
     n  l   j            E        occ.                                          
     1  0  0.50    -90639.6581   2.0000                                         
     2  0  0.50    -16282.4666   2.0000                                         
     2  1  1.50    -13922.8286   6.0000                                         
     3  0  0.50     -3930.4763   2.0000                                         
     3  1  1.50     -3256.7013   6.0000                                         
     3  2  2.50     -2581.6168  10.0000                                         
     4  0  0.50      -902.2614   2.0000                                         
     4  1  1.50      -681.5915   6.0000                                         
     4  2  2.50      -429.8249  10.0000                                         
     4  3  3.50      -152.6004  14.0000                                         
     5  0  0.50      -157.7156   2.0000                                         
     5  1  1.50       -95.8054   6.0000                                         
     5  2  2.50       -27.0806  10.0000                                         
     6  0  0.50       -14.4732   2.0000                                         
     6  1  1.50        -4.5702   3.0000                                         
     5  3  2.50        -2.7212   0.0000                                         
   Description                                                                  
     l       E           TYP  RCUT    TYP  RCUT                                 
     2    -27.0805982     23  2.500                                             
     2     -1.3605826     23  2.500                                             
     0    -14.4732271     23  2.500                                             
     0      6.8029130     23  2.500                                             
     1     -4.5701651     23  2.500                                             
     1     13.6058260     23  2.500                                             
     3     -1.3605826      7  2.500                                             
  local pseudopotential read in
  partial core-charges read in
  partial kinetic energy density read in
  atomic valenz-charges read in
  non local Contribution for L=           2  read in
    real space projection operators read in
  non local Contribution for L=           2  read in
    real space projection operators read in
  non local Contribution for L=           0  read in
    real space projection operators read in
  non local Contribution for L=           0  read in
    real space projection operators read in
  non local Contribution for L=           1  read in
    real space projection operators read in
  non local Contribution for L=           1  read in
    real space projection operators read in
    PAW grid and wavefunctions read in
 
   number of l-projection  operators is LMAX  =           6
   number of lm-projection operators is LMMAX =          18
 
 POTCAR:    PAW_PBE O 08Apr2002                   
   VRHFIN =O: s2p4                                                              
   LEXCH  = PE                                                                  
   EATOM  =   432.3788 eV,   31.7789 Ry                                         
                                                                                
   TITEL  = PAW_PBE O 08Apr2002                                                 
   LULTRA =        F    use ultrasoft PP ?                                      
   IUNSCR =        1    unscreen: 0-lin 1-nonlin 2-no                           
   RPACOR =    1.200    partial core radius                                     
   POMASS =   16.000; ZVAL   =    6.000    mass and valenz                      
   RCORE  =    1.520    outmost cutoff radius                                   
   RWIGS  =    1.550; RWIGS  =    0.820    wigner-seitz radius (au A)           
   ENMAX  =  400.000; ENMIN  =  300.000 eV                                      
   ICORE  =        2    local potential                                         
   LCOR   =        T    correct aug charges                                     
   LPAW   =        T    paw PP                                                  
   EAUG   =  605.392                                                            
   DEXC   =    0.000                                                            
   RMAX   =    1.553    core radius for proj-oper                               
   RAUG   =    1.300    factor for augmentation sphere                          
   RDEP   =    1.550    radius for radial grids                                 
   RDEPT  =    1.329    core radius for aug-charge                              
                                                                                
   Atomic configuration                                                         
    4 entries                                                                   
     n  l   j            E        occ.                                          
     1  0  0.50      -514.6923   2.0000                                         
     2  0  0.50       -23.9615   2.0000                                         
     2  1  0.50        -9.0305   4.0000                                         
     3  2  1.50        -9.5241   0.0000                                         
   Description                                                                  
     l       E           TYP  RCUT    TYP  RCUT                                 
     0    -23.9615318     23  1.200                                             
     0     -9.5240782     23  1.200                                             
     1     -9.0304911     23  1.520                                             
     1      8.1634956     23  1.520                                             
     2     -9.5240782      7  1.500                                             
  local pseudopotential read in
  partial core-charges read in
  partial kinetic energy density read in
  kinetic energy density of atom read in
  atomic valenz-charges read in
  non local Contribution for L=           0  read in
    real space projection operators read in
  non local Contribution for L=           0  read in
    real space projection operators read in
  non local Contribution for L=           1  read in
    real space projection operators read in
  non local Contribution for L=           1  read in
    real space projection operators read in
    PAW grid and wavefunctions read in
 
   number of l-projection  operators is LMAX  =           4
   number of lm-projection operators is LMMAX =           8
 
 POTCAR:    PAW_PBE Fe_pv 02Aug2007               
   VRHFIN =Fe:  3pd7s1                                                          
   LEXCH  = PE                                                                  
   EATOM  =  2457.4239 eV,  180.6156 Ry                                         
                                                                                
   TITEL  = PAW_PBE Fe_pv 02Aug2007                                             
   LULTRA =        F    use ultrasoft PP ?                                      
   IUNSCR =        1    unscreen: 0-lin 1-nonlin 2-no                           
   RPACOR =    1.750    partial core radius                                     
   POMASS =   55.847; ZVAL   =   14.000    mass and valenz                      
   RCORE  =    2.200    outmost cutoff radius                                   
   RWIGS  =    2.200; RWIGS  =    1.164    wigner-seitz radius (au A)           
   ENMAX  =  293.238; ENMIN  =  219.928 eV                                      
   ICORE  =        3    local potential                                         
   LCOR   =        T    correct aug charges                                     
   LPAW   =        T    paw PP                                                  
   EAUG   =  578.342                                                            
   DEXC   =    0.000                                                            
   RMAX   =    2.249    core radius for proj-oper                               
   RAUG   =    1.300    factor for augmentation sphere                          
   RDEP   =    2.296    radius for radial grids                                 
   RDEPT  =    1.766    core radius for aug-charge                              
                                                                                
   Atomic configuration                                                         
    8 entries                                                                   
     n  l   j            E        occ.                                          
     1  0  0.50     -6993.8440   2.0000                                         
     2  0  0.50      -814.6047   2.0000                                         
     2  1  1.50      -693.3689   6.0000                                         
     3  0  0.50       -89.4732   2.0000                                         
     3  1  1.50       -55.6373   6.0000                                         
     3  2  2.50        -3.8151   7.0000                                         
     4  0  0.50        -4.2551   1.0000                                         
     4  3  2.50        -1.3606   0.0000                                         
   Description                                                                  
     l       E           TYP  RCUT    TYP  RCUT                                 
     1    -55.6372668     23  2.000                                             
     1     -5.4423304     23  2.000                                             
     2     -3.8151096     23  2.200                                             
     2     -5.1756922     23  2.200                                             
     0     -4.2550951     23  2.200                                             
     0     27.2116520     23  2.200                                             
     3     -1.3605826     23  2.200                                             
  local pseudopotential read in
  partial core-charges read in
  partial kinetic energy density read in
  atomic valenz-charges read in
  non local Contribution for L=           1  read in
    real space projection operators read in
  non local Contribution for L=           1  read in
    real space projection operators read in
  non local Contribution for L=           2  read in
    real space projection operators read in
  non local Contribution for L=           2  read in
    real space projection operators read in
  non local Contribution for L=           0  read in
    real space projection operators read in
  non local Contribution for L=           0  read in
    real space projection operators read in
    PAW grid and wavefunctions read in
 
   number of l-projection  operators is LMAX  =           6
   number of lm-projection operators is LMMAX =          18
 

 ----------------------------------------------------------------------------- 
|                                                                             |
|  ADVICE TO THIS USER RUNNING 'VASP/VAMP'   (HEAR YOUR MASTER'S VOICE ...):  |
|                                                                             |
|      You enforced a specific xc-type in the INCAR file,                     |
|      a different type was found on the POTCAR file                          |
|          I HOPE YOU KNOW, WHAT YOU ARE  DOING                               |
|                                                                             |
 ----------------------------------------------------------------------------- 

  PAW_PBE Bi_d 06Sep2000                :
 energy of atom  1       EATOM=-1959.2045
 kinetic energy error for atom=    0.0040 (will be added to EATOM!!)
  PAW_PBE O 08Apr2002                   :
 energy of atom  2       EATOM= -432.3788
 kinetic energy error for atom=    0.0208 (will be added to EATOM!!)
  PAW_PBE Fe_pv 02Aug2007               :
 energy of atom  3       EATOM=-2457.4239
 kinetic energy error for atom=    0.0062 (will be added to EATOM!!)
 
 
 POSCAR: Bi    O   Fe                            
  positions in direct lattice
  velocities in cartesian coordinates
 exchange correlation table for  LEXCH =       14
   RHO(1)=    0.500       N(1)  =     2000
   RHO(2)=  100.500       N(2)  =     4000
 


--------------------------------------------------------------------------------------------------------


 ion  position               nearest neighbor table
   1  0.276  0.276  0.276-   6 2.32   7 2.32   8 2.32   5 2.45   3 2.45   4 2.45   9 3.09  10 3.30
                            10 3.30  10 3.30
   2  0.776  0.776  0.776-   3 2.32   4 2.32   5 2.32   8 2.45   6 2.45   7 2.45  10 3.08   9 3.30
                             9 3.30   9 3.30
   3  0.670  0.216  0.814-   9 1.96  10 2.09   2 2.32   1 2.45
   4  0.216  0.814  0.670-   9 1.96  10 2.09   2 2.32   1 2.45
   5  0.814  0.670  0.216-   9 1.96  10 2.09   2 2.32   1 2.45
   6  0.314  0.716  0.170-  10 1.96   9 2.09   1 2.32   2 2.45
   7  0.170  0.314  0.716-  10 1.96   9 2.09   1 2.32   2 2.45
   8  0.716  0.170  0.314-  10 1.96   9 2.09   1 2.32   2 2.45
   9  0.501  0.501  0.501-   5 1.96   4 1.96   3 1.96   6 2.09   8 2.09   7 2.09   1 3.09   2 3.30
                             2 3.30   2 3.30
  10  0.001  0.001  0.001-   7 1.96   8 1.96   6 1.96   5 2.09   3 2.09   4 2.09   2 3.08   1 3.30
                             1 3.30   1 3.30
 
  LATTYP: Found a trigonal (rhomboedric) cell.
 ALAT       =     5.5942819658
 COS(alpha) =     0.5073302756
  
  Lattice vectors:
  
 A1 = (   5.5942173236,  -0.0220093026,  -0.0154544201)
 A2 = (   2.8570613854,   4.8096727658,  -0.0154544201)
 A3 = (   2.8570613854,   1.6185300329,   4.5291888330)


Analysis of symmetry for initial positions (statically):
=====================================================================
 Subroutine PRICEL returns:
 Original cell was already a primitive cell.
 

 Routine SETGRP: Setting up the symmetry group for a 
 trigonal (rhombohedral) supercell.


 Subroutine GETGRP returns: Found  6 space group operations
 (whereof  3 operations were pure point group operations)
 out of a pool of 12 trial point group operations.


The static configuration has the point symmetry C_3 .
 The point group associated with its full space group is C_3v.


Analysis of symmetry for dynamics (positions and initial velocities):
=====================================================================
 Subroutine PRICEL returns:
 Original cell was already a primitive cell.
 

 Routine SETGRP: Setting up the symmetry group for a 
 trigonal (rhombohedral) supercell.


 Subroutine GETGRP returns: Found  6 space group operations
 (whereof  3 operations were pure point group operations)
 out of a pool of 12 trial point group operations.


The dynamic configuration has the point symmetry C_3 .
 The point group associated with its full space group is C_3v.


Analysis of magnetic symmetry:
=====================================================================
 Subroutine PRICEL returns:
 Original cell was already a primitive cell.
 

 Subroutine MAGSYM returns: Found  6 space group operations
 (whereof  3 operations were pure point group operations)
 out of a pool of  6 trial space group operations
 (whereof  3 operations were pure point group operations)
 and found also     1 'primitive' translations


The magnetic configuration has the point symmetry C_3 .
 The point group associated with its full space group is C_3v.
 
 
 KPOINTS: Gamma centred mesh                      

Automatic generation of k-mesh.
Space group operators:
 irot       det(A)        alpha          n_x          n_y          n_z        tau_x        tau_y        tau_z
    1     1.000000     0.000000     1.000000     0.000000     0.000000     0.000000     0.000000     0.000000
    2     1.000000   120.000000    -0.822229    -0.465794    -0.327070     0.000000     0.000000     0.000000
    3     1.000000   120.000000     0.822229     0.465794     0.327070     0.000000     0.000000     0.000000
    4    -1.000000   179.999999    -0.000000     0.574657    -0.818394     0.499993     0.499992     0.499988
    5    -1.000000   180.000000    -0.492904     0.870084     0.000000     0.499988     0.499993     0.499992
    6    -1.000000   180.000000    -0.492904     0.295426     0.818394     0.499992     0.499988     0.499993
 
 Subroutine IBZKPT returns following result:
 ===========================================
 
 Found     65 irreducible k-points:
 
 Following reciprocal coordinates:
            Coordinates               Weight
  0.000000  0.000000  0.000000      1.000000
  0.125000 -0.000000  0.000000      6.000000
  0.250000 -0.000000  0.000000      6.000000
  0.375000 -0.000000 -0.000000      6.000000
  0.500000 -0.000000  0.000000      3.000000
  0.125000  0.125000 -0.000000      6.000000
  0.250000  0.125000  0.000000     12.000000
  0.375000  0.125000  0.000000     12.000000
  0.500000  0.125000 -0.000000     12.000000
 -0.375000  0.125000  0.000000     12.000000
 -0.250000  0.125000  0.000000     12.000000
 -0.125000  0.125000  0.000000      6.000000
  0.250000  0.250000 -0.000000      6.000000
  0.375000  0.250000 -0.000000     12.000000
  0.500000  0.250000  0.000000     12.000000
 -0.375000  0.250000  0.000000     12.000000
 -0.250000  0.250000  0.000000      6.000000
  0.375000  0.375000 -0.000000      6.000000
  0.500000  0.375000 -0.000000     12.000000
 -0.375000  0.375000 -0.000000      6.000000
  0.500000  0.500000 -0.000000      3.000000
  0.125000  0.125000  0.125000      2.000000
  0.250000  0.125000  0.125000      6.000000
  0.375000  0.125000  0.125000      6.000000
  0.500000  0.125000  0.125000      6.000000
 -0.375000  0.125000  0.125000      6.000000
 -0.250000  0.125000  0.125000      6.000000
 -0.125000  0.125000  0.125000      6.000000
  0.250000  0.250000  0.125000      6.000000
  0.375000  0.250000  0.125000     12.000000
  0.500000  0.250000  0.125000     12.000000
 -0.375000  0.250000  0.125000     12.000000
 -0.250000  0.250000  0.125000     12.000000
 -0.125000  0.250000  0.125000     12.000000
  0.375000  0.375000  0.125000      6.000000
  0.500000  0.375000  0.125000     12.000000
 -0.375000  0.375000  0.125000     12.000000
 -0.250000  0.375000  0.125000     12.000000
 -0.125000  0.375000  0.125000     12.000000
  0.500000  0.500000  0.125000      6.000000
 -0.375000  0.500000  0.125000     12.000000
 -0.250000  0.500000  0.125000     12.000000
 -0.125000  0.500000  0.125000      6.000000
 -0.375000 -0.375000  0.125000      6.000000
 -0.250000 -0.375000  0.125000     12.000000
 -0.250000 -0.250000  0.125000      6.000000
  0.250000  0.250000  0.250000      2.000000
  0.375000  0.250000  0.250000      6.000000
  0.500000  0.250000  0.250000      6.000000
 -0.375000  0.250000  0.250000      6.000000
 -0.250000  0.250000  0.250000      6.000000
  0.375000  0.375000  0.250000      6.000000
  0.500000  0.375000  0.250000     12.000000
 -0.375000  0.375000  0.250000     12.000000
 -0.250000  0.375000  0.250000     12.000000
  0.500000  0.500000  0.250000      6.000000
 -0.375000  0.500000  0.250000     12.000000
 -0.250000  0.500000  0.250000      6.000000
 -0.375000 -0.375000  0.250000      6.000000
  0.375000  0.375000  0.375000      2.000000
  0.500000  0.375000  0.375000      6.000000
 -0.375000  0.375000  0.375000      6.000000
  0.500000  0.500000  0.375000      6.000000
 -0.375000  0.500000  0.375000      6.000000
  0.500000  0.500000  0.500000      1.000000
 
 Following cartesian coordinates:
            Coordinates               Weight
  0.000000  0.000000  0.000000      1.000000
  0.022267 -0.013257 -0.009309      6.000000
  0.044533 -0.026514 -0.018617      6.000000
  0.066800 -0.039770 -0.027926      6.000000
  0.089067 -0.053027 -0.037235      3.000000
  0.022343  0.012657 -0.018617      6.000000
  0.044609 -0.000600 -0.027926     12.000000
  0.066876 -0.013856 -0.037235     12.000000
  0.089143 -0.027113 -0.046543     12.000000
 -0.066724  0.065685  0.018617     12.000000
 -0.044457  0.052428  0.009309     12.000000
 -0.022190  0.039171  0.000000      6.000000
  0.044686  0.025315 -0.037235      6.000000
  0.066952  0.012058 -0.046543     12.000000
  0.089219 -0.001199 -0.055852     12.000000
 -0.066647  0.091599  0.009309     12.000000
 -0.044381  0.078342  0.000000      6.000000
  0.067029  0.037972 -0.055852      6.000000
  0.089295  0.024715 -0.065160     12.000000
 -0.066571  0.117513  0.000000      6.000000
  0.089371  0.050629 -0.074469      3.000000
  0.022419  0.012700  0.008918      2.000000
  0.044686 -0.000556 -0.000391      6.000000
  0.066952 -0.013813 -0.009699      6.000000
  0.089219 -0.027070 -0.019008      6.000000
 -0.066647  0.065728  0.046153      6.000000
 -0.044381  0.052471  0.036844      6.000000
 -0.022114  0.039214  0.027535      6.000000
  0.044762  0.025358 -0.009699      6.000000
  0.067029  0.012101 -0.019008     12.000000
  0.089295 -0.001156 -0.028317     12.000000
 -0.066571  0.091642  0.036844     12.000000
 -0.044305  0.078385  0.027535     12.000000
 -0.022038  0.065128  0.018227     12.000000
  0.067105  0.038015 -0.028317      6.000000
  0.089371  0.024758 -0.037625     12.000000
 -0.066495  0.117556  0.027535     12.000000
 -0.044228  0.104299  0.018227     12.000000
 -0.021962  0.091042  0.008918     12.000000
  0.089448  0.050672 -0.046934      6.000000
 -0.066419  0.143470  0.018227     12.000000
 -0.044152  0.130213  0.008918     12.000000
 -0.021885  0.116956 -0.000391      6.000000
 -0.066952 -0.037929  0.083387      6.000000
 -0.044686 -0.051185  0.074078     12.000000
 -0.044609 -0.025271  0.064770      6.000000
  0.044838  0.025401  0.017836      2.000000
  0.067105  0.012144  0.008527      6.000000
  0.089371 -0.001113 -0.000781      6.000000
 -0.066495  0.091685  0.064379      6.000000
 -0.044228  0.078428  0.055070      6.000000
  0.067181  0.038058 -0.000781      6.000000
  0.089448  0.024801 -0.010090     12.000000
 -0.066419  0.117599  0.055070     12.000000
 -0.044152  0.104342  0.045762     12.000000
  0.089524  0.050715 -0.019399      6.000000
 -0.066342  0.143513  0.045762     12.000000
 -0.044076  0.130256  0.036453      6.000000
 -0.066876 -0.037885  0.110922      6.000000
  0.067257  0.038101  0.026754      2.000000
  0.089524  0.024845  0.017445      6.000000
 -0.066342  0.117642  0.082606      6.000000
  0.089600  0.050759  0.008137      6.000000
 -0.066266  0.143556  0.073297      6.000000
  0.089676  0.050802  0.035672      1.000000
 
 
 Subroutine IBZKPT_HF returns following result:
 ==============================================
 
 Found    512 k-points in 1st BZ
 the following    512 k-points will be used (e.g. in the exchange kernel)
 Following reciprocal coordinates:   # in IRBZ
  0.000000  0.000000  0.000000    0.00195312   1 t-inv F
  0.125000 -0.000000  0.000000    0.00195312   2 t-inv F
  0.250000 -0.000000  0.000000    0.00195312   3 t-inv F
  0.375000 -0.000000 -0.000000    0.00195312   4 t-inv F
  0.500000 -0.000000  0.000000    0.00195312   5 t-inv F
  0.125000  0.125000 -0.000000    0.00195312   6 t-inv F
  0.250000  0.125000  0.000000    0.00195312   7 t-inv F
  0.375000  0.125000  0.000000    0.00195312   8 t-inv F
  0.500000  0.125000 -0.000000    0.00195312   9 t-inv F
 -0.375000  0.125000  0.000000    0.00195312  10 t-inv F
 -0.250000  0.125000  0.000000    0.00195312  11 t-inv F
 -0.125000  0.125000  0.000000    0.00195312  12 t-inv F
  0.250000  0.250000 -0.000000    0.00195312  13 t-inv F
  0.375000  0.250000 -0.000000    0.00195312  14 t-inv F
  0.500000  0.250000  0.000000    0.00195312  15 t-inv F
 -0.375000  0.250000  0.000000    0.00195312  16 t-inv F
 -0.250000  0.250000  0.000000    0.00195312  17 t-inv F
  0.375000  0.375000 -0.000000    0.00195312  18 t-inv F
  0.500000  0.375000 -0.000000    0.00195312  19 t-inv F
 -0.375000  0.375000 -0.000000    0.00195312  20 t-inv F
  0.500000  0.500000 -0.000000    0.00195312  21 t-inv F
  0.125000  0.125000  0.125000    0.00195312  22 t-inv F
  0.250000  0.125000  0.125000    0.00195312  23 t-inv F
  0.375000  0.125000  0.125000    0.00195312  24 t-inv F
  0.500000  0.125000  0.125000    0.00195312  25 t-inv F
 -0.375000  0.125000  0.125000    0.00195312  26 t-inv F
 -0.250000  0.125000  0.125000    0.00195312  27 t-inv F
 -0.125000  0.125000  0.125000    0.00195312  28 t-inv F
  0.250000  0.250000  0.125000    0.00195312  29 t-inv F
  0.375000  0.250000  0.125000    0.00195312  30 t-inv F
  0.500000  0.250000  0.125000    0.00195312  31 t-inv F
 -0.375000  0.250000  0.125000    0.00195312  32 t-inv F
 -0.250000  0.250000  0.125000    0.00195312  33 t-inv F
 -0.125000  0.250000  0.125000    0.00195312  34 t-inv F
  0.375000  0.375000  0.125000    0.00195312  35 t-inv F
  0.500000  0.375000  0.125000    0.00195312  36 t-inv F
 -0.375000  0.375000  0.125000    0.00195312  37 t-inv F
 -0.250000  0.375000  0.125000    0.00195312  38 t-inv F
 -0.125000  0.375000  0.125000    0.00195312  39 t-inv F
  0.500000  0.500000  0.125000    0.00195312  40 t-inv F
 -0.375000  0.500000  0.125000    0.00195312  41 t-inv F
 -0.250000  0.500000  0.125000    0.00195312  42 t-inv F
 -0.125000  0.500000  0.125000    0.00195312  43 t-inv F
 -0.375000 -0.375000  0.125000    0.00195312  44 t-inv F
 -0.250000 -0.375000  0.125000    0.00195312  45 t-inv F
 -0.250000 -0.250000  0.125000    0.00195312  46 t-inv F
  0.250000  0.250000  0.250000    0.00195312  47 t-inv F
  0.375000  0.250000  0.250000    0.00195312  48 t-inv F
  0.500000  0.250000  0.250000    0.00195312  49 t-inv F
 -0.375000  0.250000  0.250000    0.00195312  50 t-inv F
 -0.250000  0.250000  0.250000    0.00195312  51 t-inv F
  0.375000  0.375000  0.250000    0.00195312  52 t-inv F
  0.500000  0.375000  0.250000    0.00195312  53 t-inv F
 -0.375000  0.375000  0.250000    0.00195312  54 t-inv F
 -0.250000  0.375000  0.250000    0.00195312  55 t-inv F
  0.500000  0.500000  0.250000    0.00195312  56 t-inv F
 -0.375000  0.500000  0.250000    0.00195312  57 t-inv F
 -0.250000  0.500000  0.250000    0.00195312  58 t-inv F
 -0.375000 -0.375000  0.250000    0.00195312  59 t-inv F
  0.375000  0.375000  0.375000    0.00195312  60 t-inv F
  0.500000  0.375000  0.375000    0.00195312  61 t-inv F
 -0.375000  0.375000  0.375000    0.00195312  62 t-inv F
  0.500000  0.500000  0.375000    0.00195312  63 t-inv F
 -0.375000  0.500000  0.375000    0.00195312  64 t-inv F
  0.500000  0.500000  0.500000    0.00195312  65 t-inv F
  0.000000  0.125000 -0.000000    0.00195312   2 t-inv F
 -0.000000  0.000000  0.125000    0.00195312   2 t-inv F
  0.000000  0.250000 -0.000000    0.00195312   3 t-inv F
 -0.000000  0.000000  0.250000    0.00195312   3 t-inv F
 -0.000000  0.375000 -0.000000    0.00195312   4 t-inv F
 -0.000000 -0.000000  0.375000    0.00195312   4 t-inv F
  0.000000  0.500000 -0.000000    0.00195312   5 t-inv F
 -0.000000  0.000000  0.500000    0.00195312   5 t-inv F
 -0.000000  0.125000  0.125000    0.00195312   6 t-inv F
  0.125000 -0.000000  0.125000    0.00195312   6 t-inv F
  0.000000  0.250000  0.125000    0.00195312   7 t-inv F
  0.125000  0.000000  0.250000    0.00195312   7 t-inv F
  0.250000  0.000000  0.125000    0.00195312   7 t-inv F spinflp
  0.125000  0.250000  0.000000    0.00195312   7 t-inv F spinflp
  0.000000  0.125000  0.250000    0.00195312   7 t-inv F spinflp
  0.000000  0.375000  0.125000    0.00195312   8 t-inv F
  0.125000  0.000000  0.375000    0.00195312   8 t-inv F
  0.375000  0.000000  0.125000    0.00195312   8 t-inv F spinflp
  0.125000  0.375000  0.000000    0.00195312   8 t-inv F spinflp
  0.000000  0.125000  0.375000    0.00195312   8 t-inv F spinflp
 -0.000000  0.500000  0.125000    0.00195312   9 t-inv F
  0.125000 -0.000000  0.500000    0.00195312   9 t-inv F
  0.500000 -0.000000  0.125000    0.00195312   9 t-inv F spinflp
  0.125000  0.500000 -0.000000    0.00195312   9 t-inv F spinflp
 -0.000000  0.125000  0.500000    0.00195312   9 t-inv F spinflp
  0.000000 -0.375000  0.125000    0.00195312  10 t-inv F
  0.125000  0.000000 -0.375000    0.00195312  10 t-inv F
 -0.375000  0.000000  0.125000    0.00195312  10 t-inv F spinflp
  0.125000 -0.375000  0.000000    0.00195312  10 t-inv F spinflp
  0.000000  0.125000 -0.375000    0.00195312  10 t-inv F spinflp
  0.000000 -0.250000  0.125000    0.00195312  11 t-inv F
  0.125000  0.000000 -0.250000    0.00195312  11 t-inv F
 -0.250000  0.000000  0.125000    0.00195312  11 t-inv F spinflp
  0.125000 -0.250000  0.000000    0.00195312  11 t-inv F spinflp
  0.000000  0.125000 -0.250000    0.00195312  11 t-inv F spinflp
  0.000000 -0.125000  0.125000    0.00195312  12 t-inv F
  0.125000  0.000000 -0.125000    0.00195312  12 t-inv F
 -0.125000  0.000000  0.125000    0.00195312  12 t-inv F spinflp
  0.125000 -0.125000  0.000000    0.00195312  12 t-inv F spinflp
  0.000000  0.125000 -0.125000    0.00195312  12 t-inv F spinflp
 -0.000000  0.250000  0.250000    0.00195312  13 t-inv F
  0.250000 -0.000000  0.250000    0.00195312  13 t-inv F
 -0.000000  0.375000  0.250000    0.00195312  14 t-inv F
  0.250000 -0.000000  0.375000    0.00195312  14 t-inv F
  0.375000 -0.000000  0.250000    0.00195312  14 t-inv F spinflp
  0.250000  0.375000 -0.000000    0.00195312  14 t-inv F spinflp
 -0.000000  0.250000  0.375000    0.00195312  14 t-inv F spinflp
  0.000000  0.500000  0.250000    0.00195312  15 t-inv F
  0.250000  0.000000  0.500000    0.00195312  15 t-inv F
  0.500000  0.000000  0.250000    0.00195312  15 t-inv F spinflp
  0.250000  0.500000  0.000000    0.00195312  15 t-inv F spinflp
  0.000000  0.250000  0.500000    0.00195312  15 t-inv F spinflp
  0.000000 -0.375000  0.250000    0.00195312  16 t-inv F
  0.250000  0.000000 -0.375000    0.00195312  16 t-inv F
 -0.375000  0.000000  0.250000    0.00195312  16 t-inv F spinflp
  0.250000 -0.375000  0.000000    0.00195312  16 t-inv F spinflp
  0.000000  0.250000 -0.375000    0.00195312  16 t-inv F spinflp
  0.000000 -0.250000  0.250000    0.00195312  17 t-inv F
  0.250000  0.000000 -0.250000    0.00195312  17 t-inv F
 -0.250000  0.000000  0.250000    0.00195312  17 t-inv F spinflp
  0.250000 -0.250000  0.000000    0.00195312  17 t-inv F spinflp
  0.000000  0.250000 -0.250000    0.00195312  17 t-inv F spinflp
 -0.000000  0.375000  0.375000    0.00195312  18 t-inv F
  0.375000 -0.000000  0.375000    0.00195312  18 t-inv F
 -0.000000  0.500000  0.375000    0.00195312  19 t-inv F
  0.375000 -0.000000  0.500000    0.00195312  19 t-inv F
  0.500000 -0.000000  0.375000    0.00195312  19 t-inv F spinflp
  0.375000  0.500000 -0.000000    0.00195312  19 t-inv F spinflp
 -0.000000  0.375000  0.500000    0.00195312  19 t-inv F spinflp
 -0.000000 -0.375000  0.375000    0.00195312  20 t-inv F
  0.375000 -0.000000 -0.375000    0.00195312  20 t-inv F
 -0.375000 -0.000000  0.375000    0.00195312  20 t-inv F spinflp
  0.375000 -0.375000 -0.000000    0.00195312  20 t-inv F spinflp
 -0.000000  0.375000 -0.375000    0.00195312  20 t-inv F spinflp
 -0.000000  0.500000  0.500000    0.00195312  21 t-inv F
  0.500000 -0.000000  0.500000    0.00195312  21 t-inv F
  0.125000  0.250000  0.125000    0.00195312  23 t-inv F
  0.125000  0.125000  0.250000    0.00195312  23 t-inv F
  0.125000  0.375000  0.125000    0.00195312  24 t-inv F
  0.125000  0.125000  0.375000    0.00195312  24 t-inv F
  0.125000  0.500000  0.125000    0.00195312  25 t-inv F
  0.125000  0.125000  0.500000    0.00195312  25 t-inv F
  0.125000 -0.375000  0.125000    0.00195312  26 t-inv F
  0.125000  0.125000 -0.375000    0.00195312  26 t-inv F
  0.125000 -0.250000  0.125000    0.00195312  27 t-inv F
  0.125000  0.125000 -0.250000    0.00195312  27 t-inv F
  0.125000 -0.125000  0.125000    0.00195312  28 t-inv F
  0.125000  0.125000 -0.125000    0.00195312  28 t-inv F
  0.125000  0.250000  0.250000    0.00195312  29 t-inv F
  0.250000  0.125000  0.250000    0.00195312  29 t-inv F
  0.125000  0.375000  0.250000    0.00195312  30 t-inv F
  0.250000  0.125000  0.375000    0.00195312  30 t-inv F
  0.375000  0.125000  0.250000    0.00195312  30 t-inv F spinflp
  0.250000  0.375000  0.125000    0.00195312  30 t-inv F spinflp
  0.125000  0.250000  0.375000    0.00195312  30 t-inv F spinflp
  0.125000  0.500000  0.250000    0.00195312  31 t-inv F
  0.250000  0.125000  0.500000    0.00195312  31 t-inv F
  0.500000  0.125000  0.250000    0.00195312  31 t-inv F spinflp
  0.250000  0.500000  0.125000    0.00195312  31 t-inv F spinflp
  0.125000  0.250000  0.500000    0.00195312  31 t-inv F spinflp
  0.125000 -0.375000  0.250000    0.00195312  32 t-inv F
  0.250000  0.125000 -0.375000    0.00195312  32 t-inv F
 -0.375000  0.125000  0.250000    0.00195312  32 t-inv F spinflp
  0.250000 -0.375000  0.125000    0.00195312  32 t-inv F spinflp
  0.125000  0.250000 -0.375000    0.00195312  32 t-inv F spinflp
  0.125000 -0.250000  0.250000    0.00195312  33 t-inv F
  0.250000  0.125000 -0.250000    0.00195312  33 t-inv F
 -0.250000  0.125000  0.250000    0.00195312  33 t-inv F spinflp
  0.250000 -0.250000  0.125000    0.00195312  33 t-inv F spinflp
  0.125000  0.250000 -0.250000    0.00195312  33 t-inv F spinflp
  0.125000 -0.125000  0.250000    0.00195312  34 t-inv F
  0.250000  0.125000 -0.125000    0.00195312  34 t-inv F
 -0.125000  0.125000  0.250000    0.00195312  34 t-inv F spinflp
  0.250000 -0.125000  0.125000    0.00195312  34 t-inv F spinflp
  0.125000  0.250000 -0.125000    0.00195312  34 t-inv F spinflp
  0.125000  0.375000  0.375000    0.00195312  35 t-inv F
  0.375000  0.125000  0.375000    0.00195312  35 t-inv F
  0.125000  0.500000  0.375000    0.00195312  36 t-inv F
  0.375000  0.125000  0.500000    0.00195312  36 t-inv F
  0.500000  0.125000  0.375000    0.00195312  36 t-inv F spinflp
  0.375000  0.500000  0.125000    0.00195312  36 t-inv F spinflp
  0.125000  0.375000  0.500000    0.00195312  36 t-inv F spinflp
  0.125000 -0.375000  0.375000    0.00195312  37 t-inv F
  0.375000  0.125000 -0.375000    0.00195312  37 t-inv F
 -0.375000  0.125000  0.375000    0.00195312  37 t-inv F spinflp
  0.375000 -0.375000  0.125000    0.00195312  37 t-inv F spinflp
  0.125000  0.375000 -0.375000    0.00195312  37 t-inv F spinflp
  0.125000 -0.250000  0.375000    0.00195312  38 t-inv F
  0.375000  0.125000 -0.250000    0.00195312  38 t-inv F
 -0.250000  0.125000  0.375000    0.00195312  38 t-inv F spinflp
  0.375000 -0.250000  0.125000    0.00195312  38 t-inv F spinflp
  0.125000  0.375000 -0.250000    0.00195312  38 t-inv F spinflp
  0.125000 -0.125000  0.375000    0.00195312  39 t-inv F
  0.375000  0.125000 -0.125000    0.00195312  39 t-inv F
 -0.125000  0.125000  0.375000    0.00195312  39 t-inv F spinflp
  0.375000 -0.125000  0.125000    0.00195312  39 t-inv F spinflp
  0.125000  0.375000 -0.125000    0.00195312  39 t-inv F spinflp
  0.125000  0.500000  0.500000    0.00195312  40 t-inv F
  0.500000  0.125000  0.500000    0.00195312  40 t-inv F
  0.125000 -0.375000  0.500000    0.00195312  41 t-inv F
  0.500000  0.125000 -0.375000    0.00195312  41 t-inv F
 -0.375000  0.125000  0.500000    0.00195312  41 t-inv F spinflp
  0.500000 -0.375000  0.125000    0.00195312  41 t-inv F spinflp
  0.125000  0.500000 -0.375000    0.00195312  41 t-inv F spinflp
  0.125000 -0.250000  0.500000    0.00195312  42 t-inv F
  0.500000  0.125000 -0.250000    0.00195312  42 t-inv F
 -0.250000  0.125000  0.500000    0.00195312  42 t-inv F spinflp
  0.500000 -0.250000  0.125000    0.00195312  42 t-inv F spinflp
  0.125000  0.500000 -0.250000    0.00195312  42 t-inv F spinflp
  0.125000 -0.125000  0.500000    0.00195312  43 t-inv F
  0.500000  0.125000 -0.125000    0.00195312  43 t-inv F
 -0.125000  0.125000  0.500000    0.00195312  43 t-inv F spinflp
  0.500000 -0.125000  0.125000    0.00195312  43 t-inv F spinflp
  0.125000  0.500000 -0.125000    0.00195312  43 t-inv F spinflp
  0.125000 -0.375000 -0.375000    0.00195312  44 t-inv F
 -0.375000  0.125000 -0.375000    0.00195312  44 t-inv F
  0.125000 -0.250000 -0.375000    0.00195312  45 t-inv F
 -0.375000  0.125000 -0.250000    0.00195312  45 t-inv F
 -0.250000  0.125000 -0.375000    0.00195312  45 t-inv F spinflp
 -0.375000 -0.250000  0.125000    0.00195312  45 t-inv F spinflp
  0.125000 -0.375000 -0.250000    0.00195312  45 t-inv F spinflp
  0.125000 -0.250000 -0.250000    0.00195312  46 t-inv F
 -0.250000  0.125000 -0.250000    0.00195312  46 t-inv F
  0.250000  0.375000  0.250000    0.00195312  48 t-inv F
  0.250000  0.250000  0.375000    0.00195312  48 t-inv F
  0.250000  0.500000  0.250000    0.00195312  49 t-inv F
  0.250000  0.250000  0.500000    0.00195312  49 t-inv F
  0.250000 -0.375000  0.250000    0.00195312  50 t-inv F
  0.250000  0.250000 -0.375000    0.00195312  50 t-inv F
  0.250000 -0.250000  0.250000    0.00195312  51 t-inv F
  0.250000  0.250000 -0.250000    0.00195312  51 t-inv F
  0.250000  0.375000  0.375000    0.00195312  52 t-inv F
  0.375000  0.250000  0.375000    0.00195312  52 t-inv F
  0.250000  0.500000  0.375000    0.00195312  53 t-inv F
  0.375000  0.250000  0.500000    0.00195312  53 t-inv F
  0.500000  0.250000  0.375000    0.00195312  53 t-inv F spinflp
  0.375000  0.500000  0.250000    0.00195312  53 t-inv F spinflp
  0.250000  0.375000  0.500000    0.00195312  53 t-inv F spinflp
  0.250000 -0.375000  0.375000    0.00195312  54 t-inv F
  0.375000  0.250000 -0.375000    0.00195312  54 t-inv F
 -0.375000  0.250000  0.375000    0.00195312  54 t-inv F spinflp
  0.375000 -0.375000  0.250000    0.00195312  54 t-inv F spinflp
  0.250000  0.375000 -0.375000    0.00195312  54 t-inv F spinflp
  0.250000 -0.250000  0.375000    0.00195312  55 t-inv F
  0.375000  0.250000 -0.250000    0.00195312  55 t-inv F
 -0.250000  0.250000  0.375000    0.00195312  55 t-inv F spinflp
  0.375000 -0.250000  0.250000    0.00195312  55 t-inv F spinflp
  0.250000  0.375000 -0.250000    0.00195312  55 t-inv F spinflp
  0.250000  0.500000  0.500000    0.00195312  56 t-inv F
  0.500000  0.250000  0.500000    0.00195312  56 t-inv F
  0.250000 -0.375000  0.500000    0.00195312  57 t-inv F
  0.500000  0.250000 -0.375000    0.00195312  57 t-inv F
 -0.375000  0.250000  0.500000    0.00195312  57 t-inv F spinflp
  0.500000 -0.375000  0.250000    0.00195312  57 t-inv F spinflp
  0.250000  0.500000 -0.375000    0.00195312  57 t-inv F spinflp
  0.250000 -0.250000  0.500000    0.00195312  58 t-inv F
  0.500000  0.250000 -0.250000    0.00195312  58 t-inv F
 -0.250000  0.250000  0.500000    0.00195312  58 t-inv F spinflp
  0.500000 -0.250000  0.250000    0.00195312  58 t-inv F spinflp
  0.250000  0.500000 -0.250000    0.00195312  58 t-inv F spinflp
  0.250000 -0.375000 -0.375000    0.00195312  59 t-inv F
 -0.375000  0.250000 -0.375000    0.00195312  59 t-inv F
  0.375000  0.500000  0.375000    0.00195312  61 t-inv F
  0.375000  0.375000  0.500000    0.00195312  61 t-inv F
  0.375000 -0.375000  0.375000    0.00195312  62 t-inv F
  0.375000  0.375000 -0.375000    0.00195312  62 t-inv F
  0.375000  0.500000  0.500000    0.00195312  63 t-inv F
  0.500000  0.375000  0.500000    0.00195312  63 t-inv F
  0.375000 -0.375000  0.500000    0.00195312  64 t-inv F
  0.500000  0.375000 -0.375000    0.00195312  64 t-inv F
 -0.375000  0.375000  0.500000    0.00195312  64 t-inv F spinflp
  0.500000 -0.375000  0.375000    0.00195312  64 t-inv F spinflp
  0.375000  0.500000 -0.375000    0.00195312  64 t-inv F spinflp
 -0.125000  0.000000 -0.000000    0.00195312   2 t-inv T
 -0.000000 -0.125000  0.000000    0.00195312   2 t-inv T
  0.000000 -0.000000 -0.125000    0.00195312   2 t-inv T
 -0.250000  0.000000 -0.000000    0.00195312   3 t-inv T
 -0.000000 -0.250000  0.000000    0.00195312   3 t-inv T
  0.000000 -0.000000 -0.250000    0.00195312   3 t-inv T
 -0.375000  0.000000  0.000000    0.00195312   4 t-inv T
  0.000000 -0.375000  0.000000    0.00195312   4 t-inv T
  0.000000  0.000000 -0.375000    0.00195312   4 t-inv T
 -0.125000 -0.125000  0.000000    0.00195312   6 t-inv T
  0.000000 -0.125000 -0.125000    0.00195312   6 t-inv T
 -0.125000  0.000000 -0.125000    0.00195312   6 t-inv T
 -0.250000 -0.125000  0.000000    0.00195312   7 t-inv T
  0.000000 -0.250000 -0.125000    0.00195312   7 t-inv T
 -0.125000  0.000000 -0.250000    0.00195312   7 t-inv T
 -0.250000  0.000000 -0.125000    0.00195312   7 t-inv T spinflp
 -0.125000 -0.250000  0.000000    0.00195312   7 t-inv T spinflp
  0.000000 -0.125000 -0.250000    0.00195312   7 t-inv T spinflp
 -0.375000 -0.125000  0.000000    0.00195312   8 t-inv T
  0.000000 -0.375000 -0.125000    0.00195312   8 t-inv T
 -0.125000  0.000000 -0.375000    0.00195312   8 t-inv T
 -0.375000  0.000000 -0.125000    0.00195312   8 t-inv T spinflp
 -0.125000 -0.375000  0.000000    0.00195312   8 t-inv T spinflp
  0.000000 -0.125000 -0.375000    0.00195312   8 t-inv T spinflp
 -0.500000 -0.125000  0.000000    0.00195312   9 t-inv T
  0.000000 -0.500000 -0.125000    0.00195312   9 t-inv T
 -0.125000  0.000000 -0.500000    0.00195312   9 t-inv T
 -0.500000  0.000000 -0.125000    0.00195312   9 t-inv T spinflp
 -0.125000 -0.500000  0.000000    0.00195312   9 t-inv T spinflp
  0.000000 -0.125000 -0.500000    0.00195312   9 t-inv T spinflp
  0.375000 -0.125000 -0.000000    0.00195312  10 t-inv T
 -0.000000  0.375000 -0.125000    0.00195312  10 t-inv T
 -0.125000 -0.000000  0.375000    0.00195312  10 t-inv T
  0.375000 -0.000000 -0.125000    0.00195312  10 t-inv T spinflp
 -0.125000  0.375000 -0.000000    0.00195312  10 t-inv T spinflp
 -0.000000 -0.125000  0.375000    0.00195312  10 t-inv T spinflp
  0.250000 -0.125000 -0.000000    0.00195312  11 t-inv T
 -0.000000  0.250000 -0.125000    0.00195312  11 t-inv T
 -0.125000 -0.000000  0.250000    0.00195312  11 t-inv T
  0.250000 -0.000000 -0.125000    0.00195312  11 t-inv T spinflp
 -0.125000  0.250000 -0.000000    0.00195312  11 t-inv T spinflp
 -0.000000 -0.125000  0.250000    0.00195312  11 t-inv T spinflp
 -0.250000 -0.250000  0.000000    0.00195312  13 t-inv T
  0.000000 -0.250000 -0.250000    0.00195312  13 t-inv T
 -0.250000  0.000000 -0.250000    0.00195312  13 t-inv T
 -0.375000 -0.250000  0.000000    0.00195312  14 t-inv T
  0.000000 -0.375000 -0.250000    0.00195312  14 t-inv T
 -0.250000  0.000000 -0.375000    0.00195312  14 t-inv T
 -0.375000  0.000000 -0.250000    0.00195312  14 t-inv T spinflp
 -0.250000 -0.375000  0.000000    0.00195312  14 t-inv T spinflp
  0.000000 -0.250000 -0.375000    0.00195312  14 t-inv T spinflp
 -0.500000 -0.250000  0.000000    0.00195312  15 t-inv T
  0.000000 -0.500000 -0.250000    0.00195312  15 t-inv T
 -0.250000  0.000000 -0.500000    0.00195312  15 t-inv T
 -0.500000  0.000000 -0.250000    0.00195312  15 t-inv T spinflp
 -0.250000 -0.500000  0.000000    0.00195312  15 t-inv T spinflp
  0.000000 -0.250000 -0.500000    0.00195312  15 t-inv T spinflp
  0.375000 -0.250000 -0.000000    0.00195312  16 t-inv T
 -0.000000  0.375000 -0.250000    0.00195312  16 t-inv T
 -0.250000 -0.000000  0.375000    0.00195312  16 t-inv T
  0.375000 -0.000000 -0.250000    0.00195312  16 t-inv T spinflp
 -0.250000  0.375000 -0.000000    0.00195312  16 t-inv T spinflp
 -0.000000 -0.250000  0.375000    0.00195312  16 t-inv T spinflp
 -0.375000 -0.375000  0.000000    0.00195312  18 t-inv T
  0.000000 -0.375000 -0.375000    0.00195312  18 t-inv T
 -0.375000  0.000000 -0.375000    0.00195312  18 t-inv T
 -0.500000 -0.375000  0.000000    0.00195312  19 t-inv T
  0.000000 -0.500000 -0.375000    0.00195312  19 t-inv T
 -0.375000  0.000000 -0.500000    0.00195312  19 t-inv T
 -0.500000  0.000000 -0.375000    0.00195312  19 t-inv T spinflp
 -0.375000 -0.500000  0.000000    0.00195312  19 t-inv T spinflp
  0.000000 -0.375000 -0.500000    0.00195312  19 t-inv T spinflp
 -0.125000 -0.125000 -0.125000    0.00195312  22 t-inv T
 -0.250000 -0.125000 -0.125000    0.00195312  23 t-inv T
 -0.125000 -0.250000 -0.125000    0.00195312  23 t-inv T
 -0.125000 -0.125000 -0.250000    0.00195312  23 t-inv T
 -0.375000 -0.125000 -0.125000    0.00195312  24 t-inv T
 -0.125000 -0.375000 -0.125000    0.00195312  24 t-inv T
 -0.125000 -0.125000 -0.375000    0.00195312  24 t-inv T
 -0.500000 -0.125000 -0.125000    0.00195312  25 t-inv T
 -0.125000 -0.500000 -0.125000    0.00195312  25 t-inv T
 -0.125000 -0.125000 -0.500000    0.00195312  25 t-inv T
  0.375000 -0.125000 -0.125000    0.00195312  26 t-inv T
 -0.125000  0.375000 -0.125000    0.00195312  26 t-inv T
 -0.125000 -0.125000  0.375000    0.00195312  26 t-inv T
  0.250000 -0.125000 -0.125000    0.00195312  27 t-inv T
 -0.125000  0.250000 -0.125000    0.00195312  27 t-inv T
 -0.125000 -0.125000  0.250000    0.00195312  27 t-inv T
  0.125000 -0.125000 -0.125000    0.00195312  28 t-inv T
 -0.125000  0.125000 -0.125000    0.00195312  28 t-inv T
 -0.125000 -0.125000  0.125000    0.00195312  28 t-inv T
 -0.250000 -0.250000 -0.125000    0.00195312  29 t-inv T
 -0.125000 -0.250000 -0.250000    0.00195312  29 t-inv T
 -0.250000 -0.125000 -0.250000    0.00195312  29 t-inv T
 -0.375000 -0.250000 -0.125000    0.00195312  30 t-inv T
 -0.125000 -0.375000 -0.250000    0.00195312  30 t-inv T
 -0.250000 -0.125000 -0.375000    0.00195312  30 t-inv T
 -0.375000 -0.125000 -0.250000    0.00195312  30 t-inv T spinflp
 -0.250000 -0.375000 -0.125000    0.00195312  30 t-inv T spinflp
 -0.125000 -0.250000 -0.375000    0.00195312  30 t-inv T spinflp
 -0.500000 -0.250000 -0.125000    0.00195312  31 t-inv T
 -0.125000 -0.500000 -0.250000    0.00195312  31 t-inv T
 -0.250000 -0.125000 -0.500000    0.00195312  31 t-inv T
 -0.500000 -0.125000 -0.250000    0.00195312  31 t-inv T spinflp
 -0.250000 -0.500000 -0.125000    0.00195312  31 t-inv T spinflp
 -0.125000 -0.250000 -0.500000    0.00195312  31 t-inv T spinflp
  0.375000 -0.250000 -0.125000    0.00195312  32 t-inv T
 -0.125000  0.375000 -0.250000    0.00195312  32 t-inv T
 -0.250000 -0.125000  0.375000    0.00195312  32 t-inv T
  0.375000 -0.125000 -0.250000    0.00195312  32 t-inv T spinflp
 -0.250000  0.375000 -0.125000    0.00195312  32 t-inv T spinflp
 -0.125000 -0.250000  0.375000    0.00195312  32 t-inv T spinflp
  0.250000 -0.250000 -0.125000    0.00195312  33 t-inv T
 -0.125000  0.250000 -0.250000    0.00195312  33 t-inv T
 -0.250000 -0.125000  0.250000    0.00195312  33 t-inv T
  0.250000 -0.125000 -0.250000    0.00195312  33 t-inv T spinflp
 -0.250000  0.250000 -0.125000    0.00195312  33 t-inv T spinflp
 -0.125000 -0.250000  0.250000    0.00195312  33 t-inv T spinflp
  0.125000 -0.250000 -0.125000    0.00195312  34 t-inv T
 -0.125000  0.125000 -0.250000    0.00195312  34 t-inv T
 -0.250000 -0.125000  0.125000    0.00195312  34 t-inv T
  0.125000 -0.125000 -0.250000    0.00195312  34 t-inv T spinflp
 -0.250000  0.125000 -0.125000    0.00195312  34 t-inv T spinflp
 -0.125000 -0.250000  0.125000    0.00195312  34 t-inv T spinflp
 -0.375000 -0.375000 -0.125000    0.00195312  35 t-inv T
 -0.125000 -0.375000 -0.375000    0.00195312  35 t-inv T
 -0.375000 -0.125000 -0.375000    0.00195312  35 t-inv T
 -0.500000 -0.375000 -0.125000    0.00195312  36 t-inv T
 -0.125000 -0.500000 -0.375000    0.00195312  36 t-inv T
 -0.375000 -0.125000 -0.500000    0.00195312  36 t-inv T
 -0.500000 -0.125000 -0.375000    0.00195312  36 t-inv T spinflp
 -0.375000 -0.500000 -0.125000    0.00195312  36 t-inv T spinflp
 -0.125000 -0.375000 -0.500000    0.00195312  36 t-inv T spinflp
  0.375000 -0.375000 -0.125000    0.00195312  37 t-inv T
 -0.125000  0.375000 -0.375000    0.00195312  37 t-inv T
 -0.375000 -0.125000  0.375000    0.00195312  37 t-inv T
  0.375000 -0.125000 -0.375000    0.00195312  37 t-inv T spinflp
 -0.375000  0.375000 -0.125000    0.00195312  37 t-inv T spinflp
 -0.125000 -0.375000  0.375000    0.00195312  37 t-inv T spinflp
  0.250000 -0.375000 -0.125000    0.00195312  38 t-inv T
 -0.125000  0.250000 -0.375000    0.00195312  38 t-inv T
 -0.375000 -0.125000  0.250000    0.00195312  38 t-inv T
  0.250000 -0.125000 -0.375000    0.00195312  38 t-inv T spinflp
 -0.375000  0.250000 -0.125000    0.00195312  38 t-inv T spinflp
 -0.125000 -0.375000  0.250000    0.00195312  38 t-inv T spinflp
  0.125000 -0.375000 -0.125000    0.00195312  39 t-inv T
 -0.125000  0.125000 -0.375000    0.00195312  39 t-inv T
 -0.375000 -0.125000  0.125000    0.00195312  39 t-inv T
  0.125000 -0.125000 -0.375000    0.00195312  39 t-inv T spinflp
 -0.375000  0.125000 -0.125000    0.00195312  39 t-inv T spinflp
 -0.125000 -0.375000  0.125000    0.00195312  39 t-inv T spinflp
 -0.500000 -0.500000 -0.125000    0.00195312  40 t-inv T
 -0.125000 -0.500000 -0.500000    0.00195312  40 t-inv T
 -0.500000 -0.125000 -0.500000    0.00195312  40 t-inv T
  0.375000 -0.500000 -0.125000    0.00195312  41 t-inv T
 -0.125000  0.375000 -0.500000    0.00195312  41 t-inv T
 -0.500000 -0.125000  0.375000    0.00195312  41 t-inv T
  0.375000 -0.125000 -0.500000    0.00195312  41 t-inv T spinflp
 -0.500000  0.375000 -0.125000    0.00195312  41 t-inv T spinflp
 -0.125000 -0.500000  0.375000    0.00195312  41 t-inv T spinflp
  0.250000 -0.500000 -0.125000    0.00195312  42 t-inv T
 -0.125000  0.250000 -0.500000    0.00195312  42 t-inv T
 -0.500000 -0.125000  0.250000    0.00195312  42 t-inv T
  0.250000 -0.125000 -0.500000    0.00195312  42 t-inv T spinflp
 -0.500000  0.250000 -0.125000    0.00195312  42 t-inv T spinflp
 -0.125000 -0.500000  0.250000    0.00195312  42 t-inv T spinflp
  0.375000  0.375000 -0.125000    0.00195312  44 t-inv T
 -0.125000  0.375000  0.375000    0.00195312  44 t-inv T
  0.375000 -0.125000  0.375000    0.00195312  44 t-inv T
  0.250000  0.375000 -0.125000    0.00195312  45 t-inv T
 -0.125000  0.250000  0.375000    0.00195312  45 t-inv T
  0.375000 -0.125000  0.250000    0.00195312  45 t-inv T
  0.250000 -0.125000  0.375000    0.00195312  45 t-inv T spinflp
  0.375000  0.250000 -0.125000    0.00195312  45 t-inv T spinflp
 -0.125000  0.375000  0.250000    0.00195312  45 t-inv T spinflp
  0.250000  0.250000 -0.125000    0.00195312  46 t-inv T
 -0.125000  0.250000  0.250000    0.00195312  46 t-inv T
  0.250000 -0.125000  0.250000    0.00195312  46 t-inv T
 -0.250000 -0.250000 -0.250000    0.00195312  47 t-inv T
 -0.375000 -0.250000 -0.250000    0.00195312  48 t-inv T
 -0.250000 -0.375000 -0.250000    0.00195312  48 t-inv T
 -0.250000 -0.250000 -0.375000    0.00195312  48 t-inv T
 -0.500000 -0.250000 -0.250000    0.00195312  49 t-inv T
 -0.250000 -0.500000 -0.250000    0.00195312  49 t-inv T
 -0.250000 -0.250000 -0.500000    0.00195312  49 t-inv T
  0.375000 -0.250000 -0.250000    0.00195312  50 t-inv T
 -0.250000  0.375000 -0.250000    0.00195312  50 t-inv T
 -0.250000 -0.250000  0.375000    0.00195312  50 t-inv T
  0.250000 -0.250000 -0.250000    0.00195312  51 t-inv T
 -0.250000  0.250000 -0.250000    0.00195312  51 t-inv T
 -0.250000 -0.250000  0.250000    0.00195312  51 t-inv T
 -0.375000 -0.375000 -0.250000    0.00195312  52 t-inv T
 -0.250000 -0.375000 -0.375000    0.00195312  52 t-inv T
 -0.375000 -0.250000 -0.375000    0.00195312  52 t-inv T
 -0.500000 -0.375000 -0.250000    0.00195312  53 t-inv T
 -0.250000 -0.500000 -0.375000    0.00195312  53 t-inv T
 -0.375000 -0.250000 -0.500000    0.00195312  53 t-inv T
 -0.500000 -0.250000 -0.375000    0.00195312  53 t-inv T spinflp
 -0.375000 -0.500000 -0.250000    0.00195312  53 t-inv T spinflp
 -0.250000 -0.375000 -0.500000    0.00195312  53 t-inv T spinflp
  0.375000 -0.375000 -0.250000    0.00195312  54 t-inv T
 -0.250000  0.375000 -0.375000    0.00195312  54 t-inv T
 -0.375000 -0.250000  0.375000    0.00195312  54 t-inv T
  0.375000 -0.250000 -0.375000    0.00195312  54 t-inv T spinflp
 -0.375000  0.375000 -0.250000    0.00195312  54 t-inv T spinflp
 -0.250000 -0.375000  0.375000    0.00195312  54 t-inv T spinflp
  0.250000 -0.375000 -0.250000    0.00195312  55 t-inv T
 -0.250000  0.250000 -0.375000    0.00195312  55 t-inv T
 -0.375000 -0.250000  0.250000    0.00195312  55 t-inv T
  0.250000 -0.250000 -0.375000    0.00195312  55 t-inv T spinflp
 -0.375000  0.250000 -0.250000    0.00195312  55 t-inv T spinflp
 -0.250000 -0.375000  0.250000    0.00195312  55 t-inv T spinflp
 -0.500000 -0.500000 -0.250000    0.00195312  56 t-inv T
 -0.250000 -0.500000 -0.500000    0.00195312  56 t-inv T
 -0.500000 -0.250000 -0.500000    0.00195312  56 t-inv T
  0.375000 -0.500000 -0.250000    0.00195312  57 t-inv T
 -0.250000  0.375000 -0.500000    0.00195312  57 t-inv T
 -0.500000 -0.250000  0.375000    0.00195312  57 t-inv T
  0.375000 -0.250000 -0.500000    0.00195312  57 t-inv T spinflp
 -0.500000  0.375000 -0.250000    0.00195312  57 t-inv T spinflp
 -0.250000 -0.500000  0.375000    0.00195312  57 t-inv T spinflp
  0.375000  0.375000 -0.250000    0.00195312  59 t-inv T
 -0.250000  0.375000  0.375000    0.00195312  59 t-inv T
  0.375000 -0.250000  0.375000    0.00195312  59 t-inv T
 -0.375000 -0.375000 -0.375000    0.00195312  60 t-inv T
 -0.500000 -0.375000 -0.375000    0.00195312  61 t-inv T
 -0.375000 -0.500000 -0.375000    0.00195312  61 t-inv T
 -0.375000 -0.375000 -0.500000    0.00195312  61 t-inv T
  0.375000 -0.375000 -0.375000    0.00195312  62 t-inv T
 -0.375000  0.375000 -0.375000    0.00195312  62 t-inv T
 -0.375000 -0.375000  0.375000    0.00195312  62 t-inv T
 -0.500000 -0.500000 -0.375000    0.00195312  63 t-inv T
 -0.375000 -0.500000 -0.500000    0.00195312  63 t-inv T
 -0.500000 -0.375000 -0.500000    0.00195312  63 t-inv T


--------------------------------------------------------------------------------------------------------




 Dimension of arrays:
   k-points           NKPTS =     65   k-points in BZ     NKDIM =     65   number of bands    NBANDS=     56
   number of dos      NEDOS =    301   number of ions     NIONS =     10
   non local maximal  LDIM  =      6   non local SUM 2l+1 LMDIM =     18
   total plane-waves  NPLWV =  32768
   max r-space proj   IRMAX =      1   max aug-charges    IRDMAX=  12026
   dimension x,y,z NGX =    32 NGY =   32 NGZ =   32
   dimension x,y,z NGXF=    64 NGYF=   64 NGZF=   64
   support grid    NGXF=    64 NGYF=   64 NGZF=   64
   ions per type =               2   6   2
 NGX,Y,Z   is equivalent  to a cutoff of   9.51,  9.51,  9.51 a.u.
 NGXF,Y,Z  is equivalent  to a cutoff of  19.02, 19.02, 19.02 a.u.


 I would recommend the setting:
   dimension x,y,z NGX =    31 NGY =   31 NGZ =   31
 SYSTEM =  unknown system                          
 POSCAR =  Bi    O   Fe                            

 Startparameter for this run:
   NWRITE =      2    write-flag & timer
   PREC   = normal    normal or accurate (medium, high low for compatibility)
   ISTART =      0    job   : 0-new  1-cont  2-samecut
   ICHARG =      1    charge: 1-file 2-atom 10-const
   ISPIN  =      2    spin polarized calculation?
   LNONCOLLINEAR =      F non collinear calculations
   LSORBIT =      F    spin-orbit coupling
   INIWAV =      1    electr: 0-lowe 1-rand  2-diag
   LASPH  =      T    aspherical Exc in radial PAW
   METAGGA=      F    non-selfconsistent MetaGGA calc.

 Electronic Relaxation 1
   ENCUT  =  520.0 eV  38.22 Ry    6.18 a.u.  10.40 10.40 10.40*2*pi/ulx,y,z
   ENINI  =  520.0     initial cutoff
   ENAUG  =  605.4 eV  augmentation charge cutoff
   NELM   =     60;   NELMIN=  2; NELMDL= -5     # of ELM steps 
   EDIFF  = 0.1E-06   stopping-criterion for ELM
   LREAL  =      F    real-space projection
   NLSPLINE    = F    spline interpolate recip. space projectors
   LCOMPAT=      F    compatible to vasp.4.4
   GGA_COMPAT  = T    GGA compatible to vasp.4.4-vasp.4.6
   LMAXPAW     = -100 max onsite density
   LMAXMIX     =    6 max onsite mixed and CHGCAR
   VOSKOWN=      0    Vosko Wilk Nusair interpolation
   ROPT   =    0.00000   0.00000   0.00000
 Ionic relaxation
   EDIFFG = 0.1E-05   stopping-criterion for IOM
   NSW    =      0    number of steps for IOM
   NBLOCK =      1;   KBLOCK =      1    inner block; outer block 
   IBRION =     -1    ionic relax: 0-MD 1-quasi-New 2-CG
   NFREE  =      0    steps in history (QN), initial steepest desc. (CG)
   ISIF   =      2    stress and relaxation
   IWAVPR =     10    prediction:  0-non 1-charg 2-wave 3-comb
   ISYM   =      2    0-nonsym 1-usesym 2-fastsym
   LCORR  =      T    Harris-Foulkes like correction to forces

   POTIM  = 0.5000    time-step for ionic-motion
   TEIN   =    0.0    initial temperature
   TEBEG  =    0.0;   TEEND  =   0.0 temperature during run
   SMASS  =  -3.00    Nose mass-parameter (am)
   estimated Nose-frequenzy (Omega)   =  0.10E-29 period in steps =****** mass=  -0.715E-27a.u.
   SCALEE = 1.0000    scale energy and forces
   NPACO  =    256;   APACO  = 16.0  distance and # of slots for P.C.
   PSTRESS=    0.0 pullay stress

  Mass of Ions in am
   POMASS = 208.98 16.00 55.85
  Ionic Valenz
   ZVAL   =  15.00  6.00 14.00
  Atomic Wigner-Seitz radii
   RWIGS  =  -1.00 -1.00 -1.00
  virtual crystal weights 
   VCA    =   1.00  1.00  1.00
   NELECT =      94.0000    total number of electrons
   NUPDOWN=      -1.0000    fix difference up-down

 DOS related values:
   EMIN   =  10.00;   EMAX   =-10.00  energy-range for DOS
   EFERMI =   0.00
   ISMEAR =     0;   SIGMA  =   0.05  broadening in eV -4-tet -1-fermi 0-gaus

 Electronic relaxation 2 (details)
   IALGO  =     38    algorithm
   LDIAG  =      T    sub-space diagonalisation (order eigenvalues)
   LSUBROT=      F    optimize rotation matrix (better conditioning)
   TURBO    =      0    0=normal 1=particle mesh
   IRESTART =      0    0=no restart 2=restart with 2 vectors
   NREBOOT  =      0    no. of reboots
   NMIN     =      0    reboot dimension
   EREF     =   0.00    reference energy to select bands
   IMIX   =      4    mixing-type and parameters
     AMIX     =   0.40;   BMIX     =  1.00
     AMIX_MAG =   1.60;   BMIX_MAG =  1.00
     AMIN     =   0.10
     WC   =   100.;   INIMIX=   1;  MIXPRE=   1;  MAXMIX= -45

 Intra band minimization:
   WEIMIN = 0.0000     energy-eigenvalue tresh-hold
   EBREAK =  0.45E-09  absolut break condition
   DEPER  =   0.30     relativ break condition  

   TIME   =   0.40     timestep for ELM

  volume/ion in A,a.u.               =      12.24        82.62
  Fermi-wavevector in a.u.,A,eV,Ry     =   1.499066  2.832824 30.575007  2.247200
  Thomas-Fermi vector in A             =   2.610744
 
 Write flags
   LWAVE  =      F    write WAVECAR
   LCHARG =      T    write CHGCAR
   LVTOT  =      F    write LOCPOT, total local potential
   LVHAR  =      F    write LOCPOT, Hartree potential only
   LELF   =      F    write electronic localiz. function (ELF)
   LORBIT =     11    0 simple, 1 ext, 2 COOP (PROOUT)


 Dipole corrections
   LMONO  =      F    monopole corrections only (constant potential shift)
   LDIPOL =      F    correct potential (dipole corrections)
   IDIPOL =      0    1-x, 2-y, 3-z, 4-all directions 
   EPSILON=  1.0000000 bulk dielectric constant

 LDA+U is selected, type is set to LDAUTYPE =  2
   angular momentum for each species LDAUL =    -1   -1    2
   U (eV)           for each species LDAUU =   0.0  0.0  3.0
   J (eV)           for each species LDAUJ =   0.0  0.0  0.0
 Exchange correlation treatment:
   GGA     =    PS    GGA type
   LEXCH   =    14    internal setting for exchange type
   VOSKOWN=      0    Vosko Wilk Nusair interpolation
   LHFCALC =     F    Hartree Fock is set to
   LHFONE  =     F    Hartree Fock one center treatment
   AEXX    =    0.0000 exact exchange contribution

 Linear response parameters
   LEPSILON=     F    determine dielectric tensor
   LRPA    =     F    only Hartree local field effects (RPA)
   LNABLA  =     F    use nabla operator in PAW spheres
   LVEL    =     F    velocity operator in full k-point grid
   LINTERFAST=   F  fast interpolation
   KINTER  =     0    interpolate to denser k-point grid
   CSHIFT  =0.1000    complex shift for real part using Kramers Kronig
   OMEGAMAX=  -1.0    maximum frequency
   DEG_THRESHOLD= 0.2000000E-02 threshold for treating states as degnerate
   RTIME   =    0.100 relaxation time in fs

 Orbital magnetization related:
   ORBITALMAG=     F  switch on orbital magnetization
   LCHIMAG   =     F  perturbation theory with respect to B field
   DQ        =  0.001000  dq finite difference perturbation B field

 PEAD related settings:
   LPEAD      =     T    switch on PEAD
   IPEAD      =     4    finite difference order for dpsi/dk
   LCALCPOL   =     T    calculate macroscopic polarization
   LCALCEPS   =     F    calculate dielectric tensor
   EFIELD_PEAD=    0.0000    0.0000    0.0000
   SKIP_EDOTP =     F
   LRPA       =     F
   SKIP_SCF   =     F


--------------------------------------------------------------------------------------------------------


 Static calculation
 charge density and potential will be updated during run
 spin polarized calculation
 Variant of blocked Davidson
 Davidson routine will perform the subspace rotation
 perform sub-space diagonalisation
    after iterative eigenvector-optimisation
 modified Broyden-mixing scheme, WC =      100.0
 initial mixing is a Kerker type mixing with AMIX =  0.4000 and BMIX =      1.0000
 Hartree-type preconditioning will be used
 using additional bands            9
 reciprocal scheme for non local part
 use partial core corrections
 calculate Harris-corrections to forces 
   (improved forces if not selfconsistent)
 use gradient corrections 
 use of overlap-Matrix (Vanderbilt PP)
 Gauss-broadening in eV      SIGMA  =   0.05


--------------------------------------------------------------------------------------------------------


  energy-cutoff  :      520.00
  volume of cell :      122.43
      direct lattice vectors                 reciprocal lattice vectors
     5.594217324 -0.022009303 -0.015454420     0.178133040 -0.106054597 -0.074469070
     2.857061385  4.809672766 -0.015454420     0.000609904  0.207312772 -0.074469070
     2.857061385  1.618530033  4.529188833     0.000609904  0.000345511  0.220281884

  length of vectors
     5.594281966  5.594281966  5.594281966     0.220282999  0.220282999  0.220282999


 
 k-points in units of 2pi/SCALE and weight: Gamma centred mesh                      
   0.00000000  0.00000000  0.00000000       0.002
   0.02226663 -0.01325682 -0.00930863       0.012
   0.04453326 -0.02651365 -0.01861727       0.012
   0.06679989 -0.03977047 -0.02792590       0.012
   0.08906652 -0.05302730 -0.03723453       0.006
   0.02234287  0.01265727 -0.01861727       0.012
   0.04460950 -0.00059955 -0.02792590       0.023
   0.06687613 -0.01385638 -0.03723453       0.023
   0.08914276 -0.02711320 -0.04654317       0.023
  -0.06672365  0.06568457  0.01861727       0.023
  -0.04445702  0.05242775  0.00930863       0.023
  -0.02219039  0.03917092  0.00000000       0.012
   0.04468574  0.02531454 -0.03723453       0.012
   0.06695237  0.01205772 -0.04654317       0.023
   0.08921900 -0.00119911 -0.05585180       0.023
  -0.06664741  0.09159867  0.00930863       0.023
  -0.04438078  0.07834184  0.00000000       0.012
   0.06702860  0.03797182 -0.05585180       0.012
   0.08929523  0.02471499 -0.06516044       0.023
  -0.06657118  0.11751276  0.00000000       0.012
   0.08937147  0.05062909 -0.07446907       0.006
   0.02241911  0.01270046  0.00891797       0.004
   0.04468574 -0.00055636 -0.00039067       0.012
   0.06695237 -0.01381319 -0.00969930       0.012
   0.08921900 -0.02707001 -0.01900793       0.012
  -0.06664741  0.06572776  0.04615250       0.012
  -0.04438078  0.05247093  0.03684387       0.012
  -0.02211415  0.03921411  0.02753524       0.012
   0.04476197  0.02535773 -0.00969930       0.012
   0.06702860  0.01210091 -0.01900793       0.023
   0.08929523 -0.00115592 -0.02831657       0.023
  -0.06657118  0.09164186  0.03684387       0.023
  -0.04430455  0.07838503  0.02753524       0.023
  -0.02203792  0.06512821  0.01822660       0.023
   0.06710484  0.03801500 -0.02831657       0.012
   0.08937147  0.02475818 -0.03762520       0.023
  -0.06649494  0.11755595  0.02753524       0.023
  -0.04422831  0.10429913  0.01822660       0.023
  -0.02196168  0.09104230  0.00891797       0.023
   0.08944771  0.05067228 -0.04693383       0.012
  -0.06641870  0.14347005  0.01822660       0.023
  -0.04415207  0.13021322  0.00891797       0.023
  -0.02188544  0.11695640 -0.00039067       0.012
  -0.06695237 -0.03792863  0.08338704       0.012
  -0.04468574 -0.05118545  0.07407840       0.023
  -0.04460950 -0.02527135  0.06476977       0.012
   0.04483821  0.02540092  0.01783594       0.004
   0.06710484  0.01214410  0.00852730       0.012
   0.08937147 -0.00111273 -0.00078133       0.012
  -0.06649494  0.09168504  0.06437910       0.012
  -0.04422831  0.07842822  0.05507047       0.012
   0.06718108  0.03805819 -0.00078133       0.012
   0.08944771  0.02480137 -0.01008997       0.023
  -0.06641870  0.11759914  0.05507047       0.023
  -0.04415207  0.10434232  0.04576184       0.023
   0.08952395  0.05071547 -0.01939860       0.012
  -0.06634246  0.14351324  0.04576184       0.023
  -0.04407583  0.13025641  0.03645320       0.012
  -0.06687613 -0.03788544  0.11092227       0.012
   0.06725732  0.03810138  0.02675390       0.004
   0.08952395  0.02484456  0.01744527       0.012
  -0.06634246  0.11764233  0.08260571       0.012
   0.08960019  0.05075865  0.00813664       0.012
  -0.06626622  0.14355643  0.07329707       0.012
   0.08967642  0.05080184  0.03567187       0.002
 
 k-points in reciprocal lattice and weights: Gamma centred mesh                      
   0.00000000  0.00000000  0.00000000       0.002
   0.12500000 -0.00000000  0.00000000       0.012
   0.25000000 -0.00000000  0.00000000       0.012
   0.37500000 -0.00000000 -0.00000000       0.012
   0.50000000 -0.00000000  0.00000000       0.006
   0.12500000  0.12500000 -0.00000000       0.012
   0.25000000  0.12500000  0.00000000       0.023
   0.37500000  0.12500000  0.00000000       0.023
   0.50000000  0.12500000 -0.00000000       0.023
  -0.37500000  0.12500000  0.00000000       0.023
  -0.25000000  0.12500000  0.00000000       0.023
  -0.12500000  0.12500000  0.00000000       0.012
   0.25000000  0.25000000 -0.00000000       0.012
   0.37500000  0.25000000 -0.00000000       0.023
   0.50000000  0.25000000  0.00000000       0.023
  -0.37500000  0.25000000  0.00000000       0.023
  -0.25000000  0.25000000  0.00000000       0.012
   0.37500000  0.37500000 -0.00000000       0.012
   0.50000000  0.37500000 -0.00000000       0.023
  -0.37500000  0.37500000 -0.00000000       0.012
   0.50000000  0.50000000 -0.00000000       0.006
   0.12500000  0.12500000  0.12500000       0.004
   0.25000000  0.12500000  0.12500000       0.012
   0.37500000  0.12500000  0.12500000       0.012
   0.50000000  0.12500000  0.12500000       0.012
  -0.37500000  0.12500000  0.12500000       0.012
  -0.25000000  0.12500000  0.12500000       0.012
  -0.12500000  0.12500000  0.12500000       0.012
   0.25000000  0.25000000  0.12500000       0.012
   0.37500000  0.25000000  0.12500000       0.023
   0.50000000  0.25000000  0.12500000       0.023
  -0.37500000  0.25000000  0.12500000       0.023
  -0.25000000  0.25000000  0.12500000       0.023
  -0.12500000  0.25000000  0.12500000       0.023
   0.37500000  0.37500000  0.12500000       0.012
   0.50000000  0.37500000  0.12500000       0.023
  -0.37500000  0.37500000  0.12500000       0.023
  -0.25000000  0.37500000  0.12500000       0.023
  -0.12500000  0.37500000  0.12500000       0.023
   0.50000000  0.50000000  0.12500000       0.012
  -0.37500000  0.50000000  0.12500000       0.023
  -0.25000000  0.50000000  0.12500000       0.023
  -0.12500000  0.50000000  0.12500000       0.012
  -0.37500000 -0.37500000  0.12500000       0.012
  -0.25000000 -0.37500000  0.12500000       0.023
  -0.25000000 -0.25000000  0.12500000       0.012
   0.25000000  0.25000000  0.25000000       0.004
   0.37500000  0.25000000  0.25000000       0.012
   0.50000000  0.25000000  0.25000000       0.012
  -0.37500000  0.25000000  0.25000000       0.012
  -0.25000000  0.25000000  0.25000000       0.012
   0.37500000  0.37500000  0.25000000       0.012
   0.50000000  0.37500000  0.25000000       0.023
  -0.37500000  0.37500000  0.25000000       0.023
  -0.25000000  0.37500000  0.25000000       0.023
   0.50000000  0.50000000  0.25000000       0.012
  -0.37500000  0.50000000  0.25000000       0.023
  -0.25000000  0.50000000  0.25000000       0.012
  -0.37500000 -0.37500000  0.25000000       0.012
   0.37500000  0.37500000  0.37500000       0.004
   0.50000000  0.37500000  0.37500000       0.012
  -0.37500000  0.37500000  0.37500000       0.012
   0.50000000  0.50000000  0.37500000       0.012
  -0.37500000  0.50000000  0.37500000       0.012
   0.50000000  0.50000000  0.50000000       0.002
 
 position of ions in fractional coordinates (direct lattice) 
   0.27632437  0.27632440  0.27632425
   0.77633164  0.77633635  0.77633254
   0.66997845  0.21615699  0.81427646
   0.21615758  0.81427473  0.66997898
   0.81427646  0.66997833  0.21615841
   0.31429833  0.71614168  0.16997059
   0.16997065  0.31429648  0.71614257
   0.71614376  0.16997034  0.31429738
   0.50063912  0.50063876  0.50063781
   0.00063651  0.00063626  0.00063626
 
 position of ions in cartesian coordinates  (Angst):
   3.12476971  1.77018734  1.24298385
   8.77903825  4.97335481  3.49216107
   6.69201666  2.34282955  3.67431713
   5.44983642  4.99601861  3.01853659
   7.08698652  3.55431373  0.95608396
   4.28993033  3.71259214  0.75390406
   3.89488040  2.66702056  3.23606087
   5.38984644  1.31043963  1.40981780
   5.66139266  3.20718723  2.25200900
   0.00719643  0.00407599  0.00286206
 


--------------------------------------------------------------------------------------------------------


 k-point  1 :   0.0000 0.0000 0.0000  plane waves:    3311
 k-point  2 :   0.1250-0.0000 0.0000  plane waves:    3312
 k-point  3 :   0.2500-0.0000 0.0000  plane waves:    3311
 k-point  4 :   0.3750-0.0000-0.0000  plane waves:    3303
 k-point  5 :   0.5000-0.0000 0.0000  plane waves:    3300
 k-point  6 :   0.1250 0.1250-0.0000  plane waves:    3307
 k-point  7 :   0.2500 0.1250 0.0000  plane waves:    3302
 k-point  8 :   0.3750 0.1250 0.0000  plane waves:    3299
 k-point  9 :   0.5000 0.1250-0.0000  plane waves:    3298
 k-point 10 :  -0.3750 0.1250 0.0000  plane waves:    3296
 k-point 11 :  -0.2500 0.1250 0.0000  plane waves:    3305
 k-point 12 :  -0.1250 0.1250 0.0000  plane waves:    3311
 k-point 13 :   0.2500 0.2500-0.0000  plane waves:    3308
 k-point 14 :   0.3750 0.2500-0.0000  plane waves:    3295
 k-point 15 :   0.5000 0.2500 0.0000  plane waves:    3298
 k-point 16 :  -0.3750 0.2500 0.0000  plane waves:    3294
 k-point 17 :  -0.2500 0.2500 0.0000  plane waves:    3302
 k-point 18 :   0.3750 0.3750-0.0000  plane waves:    3309
 k-point 19 :   0.5000 0.3750-0.0000  plane waves:    3290
 k-point 20 :  -0.3750 0.3750-0.0000  plane waves:    3290
 k-point 21 :   0.5000 0.5000-0.0000  plane waves:    3304
 k-point 22 :   0.1250 0.1250 0.1250  plane waves:    3308
 k-point 23 :   0.2500 0.1250 0.1250  plane waves:    3304
 k-point 24 :   0.3750 0.1250 0.1250  plane waves:    3307
 k-point 25 :   0.5000 0.1250 0.1250  plane waves:    3294
 k-point 26 :  -0.3750 0.1250 0.1250  plane waves:    3294
 k-point 27 :  -0.2500 0.1250 0.1250  plane waves:    3305
 k-point 28 :  -0.1250 0.1250 0.1250  plane waves:    3295
 k-point 29 :   0.2500 0.2500 0.1250  plane waves:    3309
 k-point 30 :   0.3750 0.2500 0.1250  plane waves:    3302
 k-point 31 :   0.5000 0.2500 0.1250  plane waves:    3302
 k-point 32 :  -0.3750 0.2500 0.1250  plane waves:    3290
 k-point 33 :  -0.2500 0.2500 0.1250  plane waves:    3294
 k-point 34 :  -0.1250 0.2500 0.1250  plane waves:    3304
 k-point 35 :   0.3750 0.3750 0.1250  plane waves:    3291
 k-point 36 :   0.5000 0.3750 0.1250  plane waves:    3298
 k-point 37 :  -0.3750 0.3750 0.1250  plane waves:    3291
 k-point 38 :  -0.2500 0.3750 0.1250  plane waves:    3289
 k-point 39 :  -0.1250 0.3750 0.1250  plane waves:    3292
 k-point 40 :   0.5000 0.5000 0.1250  plane waves:    3290
 k-point 41 :  -0.3750 0.5000 0.1250  plane waves:    3300
 k-point 42 :  -0.2500 0.5000 0.1250  plane waves:    3290
 k-point 43 :  -0.1250 0.5000 0.1250  plane waves:    3284
 k-point 44 :  -0.3750-0.3750 0.1250  plane waves:    3308
 k-point 45 :  -0.2500-0.3750 0.1250  plane waves:    3304
 k-point 46 :  -0.2500-0.2500 0.1250  plane waves:    3312
 k-point 47 :   0.2500 0.2500 0.2500  plane waves:    3311
 k-point 48 :   0.3750 0.2500 0.2500  plane waves:    3301
 k-point 49 :   0.5000 0.2500 0.2500  plane waves:    3293
 k-point 50 :  -0.3750 0.2500 0.2500  plane waves:    3279
 k-point 51 :  -0.2500 0.2500 0.2500  plane waves:    3299
 k-point 52 :   0.3750 0.3750 0.2500  plane waves:    3305
 k-point 53 :   0.5000 0.3750 0.2500  plane waves:    3302
 k-point 54 :  -0.3750 0.3750 0.2500  plane waves:    3283
 k-point 55 :  -0.2500 0.3750 0.2500  plane waves:    3293
 k-point 56 :   0.5000 0.5000 0.2500  plane waves:    3283
 k-point 57 :  -0.3750 0.5000 0.2500  plane waves:    3289
 k-point 58 :  -0.2500 0.5000 0.2500  plane waves:    3286
 k-point 59 :  -0.3750-0.3750 0.2500  plane waves:    3287
 k-point 60 :   0.3750 0.3750 0.3750  plane waves:    3287
 k-point 61 :   0.5000 0.3750 0.3750  plane waves:    3294
 k-point 62 :  -0.3750 0.3750 0.3750  plane waves:    3278
 k-point 63 :   0.5000 0.5000 0.3750  plane waves:    3291
 k-point 64 :  -0.3750 0.5000 0.3750  plane waves:    3280
 k-point 65 :   0.5000 0.5000 0.5000  plane waves:    3288

 maximum and minimum number of plane-waves per node :      3312     3278

 maximum number of plane-waves:      3312
 maximum index in each direction: 
   IXMAX=   10   IYMAX=   10   IZMAX=   10
   IXMIN=  -10   IYMIN=  -10   IZMIN=  -10

 WARNING: aliasing errors must be expected set NGX to  42 to avoid them
 WARNING: aliasing errors must be expected set NGY to  42 to avoid them
 WARNING: aliasing errors must be expected set NGZ to  42 to avoid them
 aliasing errors are usually negligible using standard VASP settings
 and one can safely disregard these warnings

 serial   3D FFT for wavefunctions
 parallel 3D FFT for charge:
    minimum data exchange during FFTs selected (reduces bandwidth)


 total amount of memory used by VASP on root node   234749. kBytes
========================================================================

   base      :      30000. kBytes
   nonl-proj :      93530. kBytes
   fftplans  :       2401. kBytes
   grid      :       8568. kBytes
   one-center:        311. kBytes
   wavefun   :      99939. kBytes
 
     INWAV:  cpu time    0.0000: real time    0.0000
 Broyden mixing: mesh for mixing (old mesh)
   NGX = 21   NGY = 21   NGZ = 21
  (NGX  = 64   NGY  = 64   NGZ  = 64)
  gives a total of   9261 points

 initial charge density was supplied:
 number of electron      94.0000113 magnetization      -0.0000000
 keeping initial charge density in first step


--------------------------------------------------------------------------------------------------------


 Maximum index for augmentation-charges         2870 (set IRDMAX)


--------------------------------------------------------------------------------------------------------


 First call to EWALD:  gamma=   0.357
 Maximum number of real-space cells 3x 3x 3
 Maximum number of reciprocal cells 3x 3x 3

 FEWALD executed in parallel
    FEWALD:  cpu time    0.0016: real time    0.0015


----------------------------------------- Iteration    1(   1)  ---------------------------------------


    POTLOK:  cpu time    0.0838: real time    0.0837
    SETDIJ:  cpu time    1.4817: real time    1.4812
atom =   9  type =  3  l = 2
 
 onsite density matrix
 
spin component  1
 
  0.9670  0.0019 -0.0018 -0.0118  0.0018
  0.0019  0.9773 -0.0062 -0.0036 -0.0148
 -0.0018 -0.0062  0.9648  0.0040  0.0053
 -0.0118 -0.0036  0.0040  0.9876 -0.0053
  0.0018 -0.0148  0.0053 -0.0053  0.9789
 
spin component  2
 
  0.1290  0.0108 -0.0106 -0.0545  0.0122
  0.0108  0.1795 -0.0368 -0.0212 -0.0722
 -0.0106 -0.0368  0.1237  0.0218  0.0302
 -0.0545 -0.0212  0.0218  0.2386 -0.0296
  0.0122 -0.0722  0.0302 -0.0296  0.1959
 
 occupancies and eigenvectors
 
  o =  0.1044  v =  0.0000  0.0000  0.0000  0.0000  0.0000 -0.6514  0.3557 -0.4402 -0.0256  0.5048      0.0000  0.0000  0.0000  0.0000  0.0000  0.0000  0.0000  0.0000  0.0000  0.0000
  o =  0.1044  v =  0.0000  0.0000  0.0000  0.0000  0.0000 -0.0048  0.6041  0.7617  0.0208  0.2333      0.0000  0.0000  0.0000  0.0000  0.0000  0.0000  0.0000  0.0000  0.0000  0.0000
  o =  0.1078  v =  0.0000  0.0000  0.0000  0.0000  0.0000  0.6634  0.2639 -0.3395  0.4658  0.3976      0.0000  0.0000  0.0000  0.0000  0.0000  0.0000  0.0000  0.0000  0.0000  0.0000
  o =  0.2751  v =  0.0000  0.0000  0.0000  0.0000  0.0000 -0.0077 -0.6457  0.2968 -0.0074  0.7035      0.0000  0.0000  0.0000  0.0000  0.0000  0.0000  0.0000  0.0000  0.0000  0.0000
  o =  0.2751  v =  0.0000  0.0000  0.0000  0.0000  0.0000 -0.3682 -0.1483  0.1507  0.8842 -0.1944      0.0000  0.0000  0.0000  0.0000  0.0000  0.0000  0.0000  0.0000  0.0000  0.0000
  o =  0.9614  v = -0.6632 -0.2639  0.3397 -0.4658 -0.3977  0.0000  0.0000  0.0000  0.0000  0.0000      0.0000  0.0000  0.0000  0.0000  0.0000  0.0000  0.0000  0.0000  0.0000  0.0000
[...]
     47       6.4070      1.00000
     48       8.4757      0.00000
     49       8.6541      0.00000
     50       8.6854      0.00000
     51       9.5272      0.00000
     52       9.7435      0.00000
     53      10.1407      0.00000
     54      10.3748      0.00000
     55      11.4728      0.00000
     56      11.5331      0.00000

 k-point    65 :       0.5000    0.5000    0.5000
  band No.  band energies     occupation 
      1     -49.7967      1.00000
      2     -49.7375      1.00000
      3     -49.7375      1.00000
      4     -45.1846      1.00000
      5     -45.1384      1.00000
      6     -45.1383      1.00000
      7     -15.6064      1.00000
      8     -15.6064      1.00000
      9     -15.6032      1.00000
     10     -15.6031      1.00000
     11     -15.5544      1.00000
     12     -15.5517      1.00000
     13     -15.5270      1.00000
     14     -15.5270      1.00000
     15     -15.5255      1.00000
     16     -15.5255      1.00000
     17     -11.5318      1.00000
     18     -11.4519      1.00000
     19     -10.3637      1.00000
     20     -10.3634      1.00000
     21     -10.2391      1.00000
     22     -10.2390      1.00000
     23      -3.1369      1.00000
     24      -3.0880      1.00000
     25       0.3038      1.00000
     26       0.3039      1.00000
     27       0.7381      1.00000
     28       0.7381      1.00000
     29       0.8302      1.00000
     30       1.5683      1.00000
     31       1.8381      1.00000
     32       1.8382      1.00000
     33       2.2499      1.00000
     34       2.9297      1.00000
     35       2.9298      1.00000
     36       3.5160      1.00000
     37       3.5161      1.00000
     38       3.8025      1.00000
     39       4.0282      1.00000
     40       4.4233      1.00000
     41       4.4235      1.00000
     42       4.7425      1.00000
     43       4.7427      1.00000
     44       5.9009      1.00000
     45       6.2480      1.00000
     46       6.2481      1.00000
     47       6.3384      1.00000
     48       8.3979      0.00000
     49       8.6425      0.00000
     50       8.6425      0.00000
     51       9.7239      0.00000
     52       9.7239      0.00000
     53       9.9174      0.00000
     54      10.2155      0.00000
     55      12.0324      0.00000
     56      12.0689      0.00000


--------------------------------------------------------------------------------------------------------


 soft charge-density along one line, spin component           1
         0         1         2         3         4         5         6         7         8         9
 total charge-density along one line
 
 soft charge-density along one line, spin component           2
         0         1         2         3         4         5         6         7         8         9
 total charge-density along one line
 
 pseudopotential strength for first ion, spin component:           1
-16.969   0.000  -0.003  -0.001  -0.009   3.436  -0.000   0.001
  0.000 -16.979   0.012   0.011   0.000  -0.000   3.440  -0.006
 -0.003   0.012 -16.977   0.003  -0.009   0.001  -0.006   3.439
 -0.001   0.011   0.003 -16.983   0.008   0.001  -0.006  -0.002
 -0.009   0.000  -0.009   0.008 -16.976   0.005  -0.000   0.005
  3.436  -0.000   0.001   0.001   0.005   6.045   0.001  -0.001
 -0.000   3.440  -0.006  -0.006  -0.000   0.001   6.042   0.001
  0.001  -0.006   3.439  -0.002   0.005  -0.001   0.001   6.043
  0.001  -0.006  -0.002   3.443  -0.004   0.000   0.002   0.001
  0.005  -0.000   0.005  -0.004   3.439  -0.001  -0.000  -0.001
  0.003   0.001  -0.002   0.002   0.002  -0.001  -0.000   0.001
 -0.005  -0.002   0.003  -0.004  -0.003   0.002   0.001  -0.001
  0.013   0.005  -0.005   0.000  -0.008  -0.002  -0.001   0.001
  0.000   0.007   0.006   0.014   0.000  -0.000  -0.001  -0.001
  0.008   0.000  -0.008   0.005   0.014  -0.001  -0.000   0.001
  0.022   0.009  -0.009   0.001  -0.013  -0.000   0.000   0.001
  0.001   0.011   0.011   0.023   0.000  -0.000   0.000  -0.001
  0.013   0.001  -0.013   0.009   0.023   0.000  -0.000   0.000
 pseudopotential strength for first ion, spin component:           2
-16.969   0.000  -0.003  -0.001  -0.009   3.436   0.000   0.001
  0.000 -16.978   0.012   0.011   0.000   0.000   3.440  -0.006
 -0.003   0.012 -16.977   0.003  -0.009   0.001  -0.006   3.439
 -0.001   0.011   0.003 -16.983   0.008   0.001  -0.005  -0.001
 -0.009   0.000  -0.009   0.008 -16.976   0.005  -0.000   0.005
  3.436   0.000   0.001   0.001   0.005   6.045   0.001  -0.001
  0.000   3.440  -0.006  -0.005  -0.000   0.001   6.043   0.001
  0.001  -0.006   3.439  -0.001   0.005  -0.001   0.001   6.043
  0.001  -0.005  -0.001   3.443  -0.004   0.000   0.002   0.001
  0.005  -0.000   0.005  -0.004   3.439  -0.001  -0.000  -0.001
  0.003   0.001  -0.002   0.002   0.002  -0.001  -0.000   0.000
 -0.005  -0.002   0.003  -0.004  -0.003   0.001   0.001  -0.001
  0.013   0.005  -0.005   0.000  -0.008  -0.002  -0.001   0.001
  0.000   0.007   0.006   0.014   0.000  -0.000  -0.001  -0.001
  0.008   0.000  -0.008   0.005   0.014  -0.001  -0.000   0.001
  0.022   0.009  -0.009   0.001  -0.013  -0.001  -0.000   0.001
  0.001   0.011   0.011   0.023   0.000  -0.000  -0.000  -0.001
  0.013   0.001  -0.013   0.009   0.023  -0.000  -0.000   0.000
 total augmentation occupancy for first ion, spin component:           1
  2.001   0.000  -0.000   0.000   0.000  -0.000   0.001  -0.001   0.001   0.001   0.001   0.002  -0.018  -0.002  -0.014   0.009
  0.000   2.001  -0.001  -0.000  -0.000   0.001  -0.001  -0.002  -0.000  -0.000   0.000   0.001  -0.009  -0.007  -0.002   0.004
 -0.000  -0.001   2.001   0.000   0.000  -0.001  -0.002  -0.001   0.000   0.001  -0.001  -0.001   0.011  -0.010   0.011  -0.002
  0.000  -0.000   0.000   2.002  -0.000   0.001  -0.000   0.000   0.001  -0.000   0.001   0.001  -0.002  -0.022  -0.007  -0.001
  0.000  -0.000   0.000  -0.000   2.001   0.001  -0.000   0.001  -0.000   0.001   0.001   0.001   0.012   0.000  -0.022  -0.005
 -0.000   0.001  -0.001   0.001   0.001   0.049  -0.007   0.006  -0.006  -0.016   0.009  -0.003   0.035   0.019   0.033  -0.005
  0.001  -0.001  -0.002  -0.000  -0.000  -0.007   0.047   0.018   0.009   0.004   0.004  -0.001   0.009  -0.003   0.020  -0.001
 -0.001  -0.002  -0.001   0.000   0.001   0.006   0.018   0.047   0.001  -0.009  -0.005   0.002  -0.039   0.037  -0.023   0.004
  0.001  -0.000   0.000   0.001  -0.000  -0.006   0.009   0.001   0.027   0.007   0.007  -0.002   0.021   0.052   0.010  -0.003
  0.001  -0.000   0.001  -0.000   0.001  -0.016   0.004  -0.009   0.007   0.037   0.006  -0.002  -0.036   0.003   0.055   0.004
  0.001   0.000  -0.001   0.001   0.001   0.009   0.004  -0.005   0.007   0.006   2.022  -0.041  -0.061  -0.043  -0.107   0.001
  0.002   0.001  -0.001   0.001   0.001  -0.003  -0.001   0.002  -0.002  -0.002  -0.041   0.036   0.040   0.028   0.070  -0.003
 -0.018  -0.009   0.011  -0.002   0.012   0.035   0.009  -0.039   0.021  -0.036  -0.061   0.040   0.904   0.016   0.041  -0.087
 -0.002  -0.007  -0.010  -0.022   0.000   0.019  -0.003   0.037   0.052   0.003  -0.043   0.028   0.016   0.893   0.028  -0.001
 -0.014  -0.002   0.011  -0.007  -0.022   0.033   0.020  -0.023   0.010   0.055  -0.107   0.070   0.041   0.028   0.953  -0.003
  0.009   0.004  -0.002  -0.001  -0.005  -0.005  -0.001   0.004  -0.003   0.004   0.001  -0.003  -0.087  -0.001  -0.003   0.010
 -0.001   0.006   0.003   0.009  -0.000  -0.002  -0.000  -0.004  -0.006  -0.001   0.001  -0.002  -0.001  -0.086  -0.002   0.000
  0.005  -0.001  -0.005   0.004   0.009  -0.004  -0.002   0.003  -0.002  -0.006   0.002  -0.006  -0.003  -0.002  -0.091   0.000
 total augmentation occupancy for first ion, spin component:           2
 -0.000  -0.000   0.000  -0.000   0.000  -0.000  -0.000   0.000  -0.000  -0.000  -0.000  -0.000   0.000   0.000   0.000   0.000
 -0.000   0.000  -0.000  -0.000   0.000  -0.000  -0.000   0.000  -0.000   0.000  -0.000  -0.000   0.000   0.000   0.000   0.000
  0.000  -0.000  -0.000  -0.000   0.000   0.000   0.000  -0.000   0.000   0.000   0.000   0.000  -0.000   0.000  -0.000   0.000
 -0.000  -0.000  -0.000  -0.000  -0.000  -0.000  -0.000   0.000  -0.000  -0.000  -0.000  -0.000  -0.000   0.000   0.000  -0.000
  0.000   0.000   0.000  -0.000  -0.000  -0.000   0.000   0.000  -0.000  -0.000  -0.000  -0.000  -0.000  -0.000   0.000   0.000
 -0.000  -0.000   0.000  -0.000  -0.000   0.000  -0.000   0.000  -0.000   0.000   0.000  -0.000  -0.002  -0.000  -0.001   0.000
 -0.000  -0.000   0.000  -0.000   0.000  -0.000   0.001  -0.000  -0.000  -0.000   0.000  -0.000  -0.001  -0.001   0.000   0.000
  0.000   0.000  -0.000   0.000   0.000   0.000  -0.000   0.000  -0.000   0.000  -0.000   0.000   0.000   0.000   0.000  -0.000
 -0.000  -0.000   0.000  -0.000  -0.000  -0.000  -0.000  -0.000   0.000   0.000   0.000  -0.000   0.001  -0.001  -0.001  -0.000
 -0.000   0.000   0.000  -0.000  -0.000   0.000  -0.000   0.000   0.000  -0.000   0.000  -0.000  -0.000   0.001  -0.001   0.000
 -0.000  -0.000   0.000  -0.000  -0.000   0.000   0.000  -0.000   0.000   0.000   0.000  -0.000   0.002   0.002   0.004   0.000
 -0.000  -0.000   0.000  -0.000  -0.000  -0.000  -0.000   0.000  -0.000  -0.000  -0.000   0.000  -0.001  -0.001  -0.002  -0.000
  0.000   0.000  -0.000  -0.000  -0.000  -0.002  -0.001   0.000   0.001  -0.000   0.002  -0.001  -0.002  -0.002  -0.005  -0.000
  0.000   0.000   0.000   0.000  -0.000  -0.000  -0.001   0.000  -0.001   0.001   0.002  -0.001  -0.002  -0.000  -0.003   0.000
  0.000   0.000  -0.000   0.000   0.000  -0.001   0.000   0.000  -0.001  -0.001   0.004  -0.002  -0.005  -0.003  -0.007   0.000
  0.000   0.000   0.000  -0.000   0.000   0.000   0.000  -0.000  -0.000   0.000   0.000  -0.000  -0.000   0.000   0.000   0.000
 -0.000   0.000  -0.000   0.000  -0.000   0.000   0.000  -0.000   0.000  -0.000   0.000  -0.000   0.000  -0.000   0.000  -0.000
  0.000  -0.000  -0.000   0.000   0.000   0.000  -0.000  -0.000   0.000   0.000   0.000  -0.000   0.000   0.000   0.000  -0.000


------------------------ aborting loop because EDIFF is reached ----------------------------------------


     CALCP:  cpu time  169.2881: real time  169.2776
 
            Ionic dipole moment: p[ion]=(    -2.30363    -1.30510    -0.91633 ) electrons Angst
 
    Spin resolved dipole moment: p[sp1]=(    -1.75237    -0.99269    -0.69710 ) electrons Angst
                                 p[sp2]=(     3.90215     2.21048     1.55147 ) electrons Angst
 
 Total electronic dipole moment: p[elc]=(     2.14978     1.21780     0.85437 ) electrons Angst
 
 
 


 total charge     
 
# of ion     s       p       d       tot
----------------------------------------
  1        1.644   0.856  10.027  12.527
  2        1.644   0.857  10.027  12.528
  3        1.569   3.475   0.000   5.044
  4        1.568   3.410   0.000   4.978
  5        1.570   3.350   0.000   4.920
  6        1.568   3.451   0.000   5.019
  7        1.570   3.349   0.000   4.919
  8        1.569   3.431   0.000   5.000
  9        0.303   6.375   5.719  12.396
 10        0.303   6.374   5.719  12.396
------------------------------------------------
tot       13.305  34.929  31.492  79.726
 


 magnetization (x)
 
# of ion     s       p       d       tot
----------------------------------------
  1        0.001  -0.004   0.001  -0.002
  2       -0.001   0.004  -0.001   0.002
  3        0.002   0.038   0.000   0.039
  4        0.001   0.041   0.000   0.042
  5       -0.000   0.053   0.000   0.052
  6       -0.000  -0.048   0.000  -0.049
  7       -0.001  -0.044   0.000  -0.045
  8       -0.001  -0.039   0.000  -0.041
  9        0.010   0.019   4.007   4.036
 10       -0.010  -0.019  -4.006  -4.035
------------------------------------------------
tot       -0.000  -0.000   0.001   0.000
 
    CHARGE:  cpu time    0.7035: real time    0.7033
    FORLOC:  cpu time    0.0058: real time    0.0058
    FORNL :  cpu time    6.4797: real time    6.4775
    STRESS:  cpu time    7.7993: real time    7.8045
    FORCOR:  cpu time    0.0870: real time    0.0870
    FORHAR:  cpu time    0.0121: real time    0.0121
    MIXING:  cpu time    0.0028: real time    0.0028
    OFIELD:  cpu time    0.0001: real time    0.0001

  FORCE on cell =-STRESS in cart. coord.  units (eV):
  Direction    XX          YY          ZZ          XY          YZ          ZX
  --------------------------------------------------------------------------------------
  Alpha Z   419.61414   419.61414   419.61414
  Ewald   -2835.22666 -2796.26390 -2786.92600   -32.50406   -12.93396   -22.82257
  Hartree   949.40245   975.79159   982.11744   -22.01808    -8.75974   -15.45919
  E(xc)    -499.81138  -499.75553  -499.74220    -0.04654    -0.01852    -0.03268
  Local      23.07381   -43.72092   -59.73462    55.73056    22.17261    39.12994
  n-local     7.26594     7.00904     7.52141     1.39789    -0.09800     1.44010
  augment   590.64233   592.01828   592.34901    -1.14917    -0.45677    -0.80674
  Kinetic  1346.30209  1344.68180  1344.12391    -0.69146     1.05642    -4.23645
  Fock        0.00000     0.00000     0.00000     0.00000     0.00000     0.00000
  -------------------------------------------------------------------------------------
  Total      -0.01501    -0.01263    -0.01206    -0.00198    -0.00079    -0.00139
  in kB      -0.19645    -0.16533    -0.15787    -0.02596    -0.01033    -0.01823
  external pressure =       -0.17 kB  Pullay stress =        0.00 kB


 VOLUME and BASIS-vectors are now :
 -----------------------------------------------------------------------------
  energy-cutoff  :      520.00
  volume of cell :      122.43
      direct lattice vectors                 reciprocal lattice vectors
     5.594217324 -0.022009303 -0.015454420     0.178133040 -0.106054597 -0.074469070
     2.857061385  4.809672766 -0.015454420     0.000609904  0.207312772 -0.074469070
     2.857061385  1.618530033  4.529188833     0.000609904  0.000345511  0.220281884

  length of vectors
     5.594281966  5.594281966  5.594281966     0.220282999  0.220282999  0.220282999


 FORCES acting on ions
    electron-ion (+dipol)            ewald-force                    non-local-force                 convergence-correction
 -----------------------------------------------------------------------------------------------
   0.182E+03 0.103E+03 0.726E+02   -.191E+03 -.108E+03 -.759E+02   0.841E+01 0.476E+01 0.334E+01   0.156E-02 0.944E-03 0.542E-03
   0.182E+03 0.103E+03 0.725E+02   -.191E+03 -.108E+03 -.759E+02   0.841E+01 0.476E+01 0.334E+01   0.247E-03 0.335E-03 -.204E-03
   -.171E+01 -.534E+02 -.267E+02   0.510E+01 0.564E+02 0.280E+02   -.341E+01 -.305E+01 -.127E+01   0.247E-03 0.316E-06 0.133E-03
   -.467E+02 -.162E+02 0.335E+02   0.510E+02 0.180E+02 -.327E+02   -.437E+01 -.165E+01 -.840E+00   -.105E-03 0.781E-04 0.920E-05
   -.379E+02 0.207E+02 -.412E+02   0.416E+02 -.190E+02 0.436E+02   -.367E+01 -.177E+01 -.244E+01   0.297E-03 0.117E-03 0.833E-04
   -.380E+02 -.316E+02 0.336E+02   0.416E+02 0.345E+02 -.327E+02   -.367E+01 -.290E+01 -.840E+00   -.642E-04 -.370E-03 0.586E-04
   -.165E+01 -.433E+02 -.411E+02   0.507E+01 0.455E+02 0.436E+02   -.341E+01 -.223E+01 -.244E+01   -.150E-03 0.846E-04 -.358E-03
   -.466E+02 0.260E+02 -.268E+02   0.510E+02 -.247E+02 0.280E+02   -.437E+01 -.135E+01 -.127E+01   -.215E-03 0.865E-04 0.129E-03
   -.915E+02 -.518E+02 -.364E+02   0.931E+02 0.527E+02 0.370E+02   -.157E+01 -.889E+00 -.624E+00   -.146E-03 -.487E-03 -.230E-03
   -.915E+02 -.518E+02 -.364E+02   0.931E+02 0.528E+02 0.370E+02   -.157E+01 -.889E+00 -.624E+00   -.328E-03 0.569E-03 0.482E-03
 -----------------------------------------------------------------------------------------------
   0.919E+01 0.525E+01 0.365E+01   -.995E-13 0.000E+00 -.142E-13   -.921E+01 -.521E+01 -.366E+01   0.134E-02 0.136E-02 0.646E-03
 
 
 POSITION                                       TOTAL-FORCE (eV/Angst)
 -----------------------------------------------------------------------------------
      3.12477      1.77019      1.24298        -0.000426     -0.000241     -0.000169
      8.77904      4.97335      3.49216        -0.000426     -0.000241     -0.000169
      6.69202      2.34283      3.67432        -0.000327      0.000725      0.000436
      5.44984      4.99602      3.01854         0.000454      0.000188     -0.000762
      7.08699      3.55431      0.95608         0.000394     -0.000618      0.000534
      4.28993      3.71259      0.75390         0.000394      0.000293     -0.000762
      3.89488      2.66702      3.23606        -0.000327      0.000656      0.000534
      5.38985      1.31044      1.40982         0.000454     -0.000653      0.000436
      5.66139      3.20719      2.25201        -0.000095     -0.000054     -0.000038
      0.00720      0.00408      0.00286        -0.000095     -0.000054     -0.000038
 -----------------------------------------------------------------------------------
    total drift:                               -0.017675      0.033178     -0.014028


--------------------------------------------------------------------------------------------------------



  FREE ENERGIE OF THE ION-ELECTRON SYSTEM (eV)
  ---------------------------------------------------
  free  energy   TOTEN  =       -67.69170875 eV

  energy  without entropy=      -67.69170875  energy(sigma->0) =      -67.69170875
 


--------------------------------------------------------------------------------------------------------


    POTLOK:  cpu time    1.5625: real time    1.5619


--------------------------------------------------------------------------------------------------------


     LOOP+:  cpu time  375.0337: real time  375.5456
    4ORBIT:  cpu time    0.0000: real time    0.0000
 


 total charge     
 
# of ion     s       p       d       tot
----------------------------------------
  1        1.644   0.856  10.027  12.527
  2        1.644   0.857  10.027  12.528
  3        1.569   3.475   0.000   5.044
  4        1.568   3.410   0.000   4.978
  5        1.570   3.350   0.000   4.920
  6        1.568   3.451   0.000   5.019
  7        1.570   3.349   0.000   4.919
  8        1.569   3.431   0.000   5.000
  9        0.303   6.375   5.719  12.396
 10        0.303   6.374   5.719  12.396
------------------------------------------------
tot       13.305  34.929  31.492  79.726
 


 magnetization (x)
 
# of ion     s       p       d       tot
----------------------------------------
  1        0.001  -0.004   0.001  -0.002
  2       -0.001   0.004  -0.001   0.002
  3        0.002   0.038   0.000   0.039
  4        0.001   0.041   0.000   0.042
  5       -0.000   0.053   0.000   0.052
  6       -0.000  -0.048   0.000  -0.049
  7       -0.001  -0.044   0.000  -0.045
  8       -0.001  -0.039   0.000  -0.041
  9        0.010   0.019   4.007   4.036
 10       -0.010  -0.019  -4.006  -4.035
------------------------------------------------
tot       -0.000  -0.000   0.001   0.000
 

 total amount of memory used by VASP on root node   234749. kBytes
========================================================================

   base      :      30000. kBytes
   nonl-proj :      93530. kBytes
   fftplans  :       2401. kBytes
   grid      :       8568. kBytes
   one-center:        311. kBytes
   wavefun   :      99939. kBytes
 
  
  
 General timing and accounting informations for this job:
 ========================================================
  
                  Total CPU time used (sec):      386.273
                            User time (sec):      380.078
                          System time (sec):        6.195
                         Elapsed time (sec):      389.825
  
                   Maximum memory used (kb):      332784.
                   Average memory used (kb):           0.
  
                          Minor page faults:       420602
                          Major page faults:           60
                 Voluntary context switches:          918
