   10   10    1    2
  0.1285713E+02  0.5706178E-09  0.5706178E-09  0.5706178E-09  0.5000000E-15
  1.000000000000000E-004
  CAR 
 unknown system                          
     94    120     56
 
  0.5000000E+00  0.0000000E+00  0.0000000E+00  0.8333333E-02
    1      -51.132393    -51.127614   1.000000   1.000000
    2      -51.069100    -51.064629   1.000000   1.000000
    3      -51.069070    -51.064595   1.000000   1.000000
    4      -46.275489    -46.280189   1.000000   1.000000
    5      -46.229317    -46.233803   1.000000   1.000000
    6      -46.229290    -46.233776   1.000000   1.000000
    7      -16.103468    -16.103562   1.000000   1.000000
    8      -16.102566    -16.102512   1.000000   1.000000
    9      -16.089835    -16.089926   1.000000   1.000000
   10      -16.088705    -16.088598   1.000000   1.000000
   11      -16.047030    -16.046990   1.000000   1.000000
   12      -16.046132    -16.046174   1.000000   1.000000
   13      -16.035254    -16.035212   1.000000   1.000000
   14      -16.034071    -16.034125   1.000000   1.000000
   15      -16.023729    -16.023886   1.000000   1.000000
   16      -16.022731    -16.022535   1.000000   1.000000
   17      -11.720950    -11.719613   1.000000   1.000000
   18      -11.678700    -11.679660   1.000000   1.000000
   19      -10.754970    -10.753119   1.000000   1.000000
   20      -10.666288    -10.667397   1.000000   1.000000
   21      -10.611688    -10.611436   1.000000   1.000000
   22      -10.561055    -10.562021   1.000000   1.000000
   23       -3.439224     -3.439091   1.000000   1.000000
   24       -3.421948     -3.421733   1.000000   1.000000
   25       -1.065280     -1.061693   1.000000   1.000000
   26       -1.038190     -1.034678   1.000000   1.000000
   27       -0.859026     -0.854977   1.000000   1.000000
   28       -0.844925     -0.840992   1.000000   1.000000
   29       -0.580658     -0.576586   1.000000   1.000000
   30        1.098292      1.097780   1.000000   1.000000
   31        1.295707      1.295940   1.000000   1.000000
   32        1.748067      1.748182   1.000000   1.000000
   33        2.057120      2.057063   1.000000   1.000000
   34        2.367429      2.367130   1.000000   1.000000
   35        2.594657      2.594327   1.000000   1.000000
   36        2.827061      2.827925   1.000000   1.000000
   37        3.051196      3.050468   1.000000   1.000000
   38        3.711339      3.710608   1.000000   1.000000
   39        4.107146      4.107728   1.000000   1.000000
   40        4.281099      4.280805   1.000000   1.000000
   41        4.385833      4.384701   1.000000   1.000000
   42        4.590943      4.591189   1.000000   1.000000
   43        4.692715      4.692350   1.000000   1.000000
   44        5.072129      5.073184   1.000000   1.000000
   45        5.201188      5.201589   1.000000   1.000000
   46        5.476786      5.476583   1.000000   1.000000
   47        5.729348      5.729618   1.000000   1.000000
   48        8.411252      8.407853   0.000000   0.000000
   49        8.567748      8.564135   0.000000   0.000000
   50        8.716861      8.713266   0.000000   0.000000
   51        9.078464      9.075285   0.000000   0.000000
   52        9.148688      9.145530   0.000000   0.000000
   53        9.875640      9.876467   0.000000   0.000000
   54       10.041183     10.039869   0.000000   0.000000
   55       11.160082     11.159996   0.000000   0.000000
   56       11.235367     11.235313   0.000000   0.000000
 
  0.5000000E+00  0.2173913E-01  0.0000000E+00  0.8333333E-02
    1      -51.132393    -51.127615   1.000000   1.000000
    2      -51.069099    -51.064626   1.000000   1.000000
    3      -51.069067    -51.064594   1.000000   1.000000
    4      -46.275489    -46.280189   1.000000   1.000000
    5      -46.229313    -46.233801   1.000000   1.000000
    6      -46.229288    -46.233772   1.000000   1.000000
    7      -16.104558    -16.104214   1.000000   1.000000
    8      -16.102025    -16.102550   1.000000   1.000000
    9      -16.090439    -16.089892   1.000000   1.000000
   10      -16.087563    -16.087955   1.000000   1.000000
   11      -16.047102    -16.046976   1.000000   1.000000
   12      -16.046120    -16.046261   1.000000   1.000000
   13      -16.035231    -16.035236   1.000000   1.000000
   14      -16.034117    -16.034093   1.000000   1.000000
   15      -16.023879    -16.024034   1.000000   1.000000
   16      -16.022419    -16.022240   1.000000   1.000000
   17      -11.727211    -11.725734   1.000000   1.000000
   18      -11.670815    -11.671941   1.000000   1.000000
   19      -10.755805    -10.754418   1.000000   1.000000
   20      -10.668317    -10.667232   1.000000   1.000000
   21      -10.611661    -10.614540   1.000000   1.000000
   22      -10.560156    -10.559685   1.000000   1.000000
   23       -3.448199     -3.447718   1.000000   1.000000
   24       -3.413312     -3.413475   1.000000   1.000000
   25       -1.070589     -1.066635   1.000000   1.000000
   26       -1.034044     -1.030750   1.000000   1.000000
   27       -0.863007     -0.862195   1.000000   1.000000
   28       -0.839532     -0.833147   1.000000   1.000000
   29       -0.581027     -0.576882   1.000000   1.000000
   30        1.093870      1.096672   1.000000   1.000000
   31        1.301078      1.301036   1.000000   1.000000
   32        1.742940      1.749145   1.000000   1.000000
   33        2.063932      2.057447   1.000000   1.000000
   34        2.374330      2.366568   1.000000   1.000000
   35        2.594281      2.593331   1.000000   1.000000
   36        2.828076      2.827423   1.000000   1.000000
   37        3.051813      3.058416   1.000000   1.000000
   38        3.710374      3.707611   1.000000   1.000000
   39        4.102627      4.107890   1.000000   1.000000
   40        4.280421      4.274599   1.000000   1.000000
   41        4.385129      4.386656   1.000000   1.000000
   42        4.590747      4.591898   1.000000   1.000000
   43        4.691947      4.692049   1.000000   1.000000
   44        5.067678      5.068117   1.000000   1.000000
   45        5.201523      5.205227   1.000000   1.000000
   46        5.477249      5.476013   1.000000   1.000000
   47        5.730506      5.727788   1.000000   1.000000
   48        8.413128      8.408884   0.000000   0.000000
   49        8.568247      8.564454   0.000000   0.000000
   50        8.716413      8.713278   0.000000   0.000000
   51        9.077810      9.071195   0.000000   0.000000
   52        9.147488      9.149727   0.000000   0.000000
   53        9.875659      9.878083   0.000000   0.000000
   54       10.042473     10.039353   0.000000   0.000000
   55       11.141201     11.136401   0.000000   0.000000
   56       11.252268     11.256145   0.000000   0.000000
 
  0.5000000E+00  0.4347826E-01  0.0000000E+00  0.8333333E-02
    1      -51.132393    -51.127614   1.000000   1.000000
    2      -51.069097    -51.064623   1.000000   1.000000
    3      -51.069064    -51.064592   1.000000   1.000000
    4      -46.275488    -46.280188   1.000000   1.000000
    5      -46.229310    -46.233799   1.000000   1.000000
    6      -46.229286    -46.233768   1.000000   1.000000
    7      -16.106510    -16.105961   1.000000   1.000000
    8      -16.101635    -16.102635   1.000000   1.000000
    9      -16.090852    -16.089683   1.000000   1.000000
   10      -16.085652    -16.086399   1.000000   1.000000
   11      -16.047323    -16.046948   1.000000   1.000000
   12      -16.046093    -16.046521   1.000000   1.000000
   13      -16.035175    -16.035312   1.000000   1.000000
   14      -16.034253    -16.034013   1.000000   1.000000
   15      -16.024121    -16.024307   1.000000   1.000000
   16      -16.021723    -16.021557   1.000000   1.000000
   17      -11.739466    -11.737635   1.000000   1.000000
   18      -11.653815    -11.655370   1.000000   1.000000
   19      -10.758396    -10.758231   1.000000   1.000000
   20      -10.673958    -10.666905   1.000000   1.000000
   21      -10.611959    -10.622566   1.000000   1.000000
   22      -10.557527    -10.553975   1.000000   1.000000
   23       -3.462931     -3.462071   1.000000   1.000000
   24       -3.399610     -3.400237   1.000000   1.000000
   25       -1.081845     -1.077312   1.000000   1.000000
   26       -1.026251     -1.023104   1.000000   1.000000
   27       -0.869140     -0.873048   1.000000   1.000000
   28       -0.829230     -0.820410   1.000000   1.000000
   29       -0.582137     -0.577790   1.000000   1.000000
   30        1.082052      1.093735   1.000000   1.000000
   31        1.315697      1.315844   1.000000   1.000000
   32        1.729981      1.752009   1.000000   1.000000
   33        2.081687      2.058623   1.000000   1.000000
   34        2.395108      2.364745   1.000000   1.000000
   35        2.593195      2.591011   1.000000   1.000000
   36        2.831118      2.826457   1.000000   1.000000
   37        3.053692      3.081111   1.000000   1.000000
   38        3.707597      3.698951   1.000000   1.000000
   39        4.089853      4.108045   1.000000   1.000000
   40        4.276943      4.257563   1.000000   1.000000
   41        4.383559      4.391269   1.000000   1.000000
   42        4.590170      4.593767   1.000000   1.000000
   43        4.689979      4.691112   1.000000   1.000000
   44        5.054923      5.054938   1.000000   1.000000
   45        5.202103      5.213866   1.000000   1.000000
   46        5.478270      5.474545   1.000000   1.000000
   47        5.733990      5.722439   1.000000   1.000000
   48        8.418682      8.411917   0.000000   0.000000
   49        8.569734      8.565406   0.000000   0.000000
   50        8.715072      8.713254   0.000000   0.000000
   51        9.075105      9.060766   0.000000   0.000000
   52        9.144755      9.160423   0.000000   0.000000
   53        9.874985      9.882867   0.000000   0.000000
   54       10.046805     10.037634   0.000000   0.000000
   55       11.105341     11.093645   0.000000   0.000000
   56       11.282478     11.290624   0.000000   0.000000
 
  0.5000000E+00  0.6521739E-01  0.0000000E+00  0.8333333E-02
    1      -51.132393    -51.127615   1.000000   1.000000
    2      -51.069097    -51.064622   1.000000   1.000000
    3      -51.069063    -51.064592   1.000000   1.000000
    4      -46.275489    -46.280189   1.000000   1.000000
    5      -46.229308    -46.233799   1.000000   1.000000
    6      -46.229287    -46.233768   1.000000   1.000000
    7      -16.108921    -16.108382   1.000000   1.000000
    8      -16.101557    -16.102751   1.000000   1.000000
    9      -16.090788    -16.089276   1.000000   1.000000
   10      -16.083515    -16.084405   1.000000   1.000000
   11      -16.047679    -16.047002   1.000000   1.000000
   12      -16.046051    -16.046836   1.000000   1.000000
   13      -16.035101    -16.035430   1.000000   1.000000
   14      -16.034460    -16.033908   1.000000   1.000000
   15      -16.024324    -16.024557   1.000000   1.000000
   16      -16.020801    -16.020648   1.000000   1.000000
   17      -11.752289    -11.750008   1.000000   1.000000
   18      -11.633192    -11.635320   1.000000   1.000000
   19      -10.762802    -10.764400   1.000000   1.000000
   20      -10.682282    -10.666736   1.000000   1.000000
   21      -10.613229    -10.633371   1.000000   1.000000
   22      -10.553401    -10.546883   1.000000   1.000000
   23       -3.478986     -3.477804   1.000000   1.000000
   24       -3.385264     -3.386351   1.000000   1.000000
   25       -1.095191     -1.090176   1.000000   1.000000
   26       -1.018615     -1.015231   1.000000   1.000000
   27       -0.874437     -0.883586   1.000000   1.000000
   28       -0.817196     -0.806717   1.000000   1.000000
   29       -0.583961     -0.579330   1.000000   1.000000
   30        1.065814      1.089809   1.000000   1.000000
   31        1.336441      1.339235   1.000000   1.000000
   32        1.714355      1.756691   1.000000   1.000000
   33        2.104842      2.060654   1.000000   1.000000
   34        2.429565      2.361353   1.000000   1.000000
   35        2.591591      2.589061   1.000000   1.000000
   36        2.836166      2.826092   1.000000   1.000000
   37        3.056921      3.115876   1.000000   1.000000
   38        3.703362      3.685537   1.000000   1.000000
   39        4.070624      4.107344   1.000000   1.000000
   40        4.267410      4.232593   1.000000   1.000000
   41        4.382376      4.396536   1.000000   1.000000
   42        4.589280      4.596036   1.000000   1.000000
   43        4.687574      4.689498   1.000000   1.000000
   44        5.035260      5.037425   1.000000   1.000000
   45        5.202042      5.222986   1.000000   1.000000
   46        5.478909      5.472930   1.000000   1.000000
   47        5.739761      5.713974   1.000000   1.000000
   48        8.427667      8.416804   0.000000   0.000000
   49        8.572205      8.566997   0.000000   0.000000
   50        8.712898      8.713061   0.000000   0.000000
   51        9.068318      9.046638   0.000000   0.000000
   52        9.142915      9.174754   0.000000   0.000000
   53        9.871752      9.890596   0.000000   0.000000
   54       10.055347     10.034310   0.000000   0.000000
   55       11.066996     11.048910   0.000000   0.000000
   56       11.310918     11.322500   0.000000   0.000000
 
  0.5000000E+00  0.8695652E-01  0.0000000E+00  0.8333333E-02
    1      -51.132395    -51.127616   1.000000   1.000000
    2      -51.069098    -51.064622   1.000000   1.000000
    3      -51.069063    -51.064593   1.000000   1.000000
    4      -46.275490    -46.280190   1.000000   1.000000
    5      -46.229309    -46.233800   1.000000   1.000000
    6      -46.229288    -46.233768   1.000000   1.000000
    7      -16.111626    -16.111153   1.000000   1.000000
    8      -16.101668    -16.102884   1.000000   1.000000
    9      -16.090352    -16.088704   1.000000   1.000000
   10      -16.081316    -16.082259   1.000000   1.000000
   11      -16.048147    -16.047516   1.000000   1.000000
   12      -16.045988    -16.046792   1.000000   1.000000
   13      -16.035016    -16.035577   1.000000   1.000000
   14      -16.034705    -16.033788   1.000000   1.000000
   15      -16.024474    -16.024754   1.000000   1.000000
   16      -16.019700    -16.019563   1.000000   1.000000
   17      -11.764159    -11.761421   1.000000   1.000000
   18      -11.610507    -11.613260   1.000000   1.000000
   19      -10.769120    -10.772603   1.000000   1.000000
   20      -10.692295    -10.667471   1.000000   1.000000
   21      -10.615780    -10.645196   1.000000   1.000000
   22      -10.548135    -10.539516   1.000000   1.000000
   23       -3.495949     -3.494493   1.000000   1.000000
   24       -3.370643     -3.372188   1.000000   1.000000
   25       -1.109461     -1.104144   1.000000   1.000000
   26       -1.012153     -1.008143   1.000000   1.000000
   27       -0.878462     -0.893168   1.000000   1.000000
   28       -0.804176     -0.792646   1.000000   1.000000
   29       -0.586452     -0.581513   1.000000   1.000000
   30        1.047834      1.085675   1.000000   1.000000
   31        1.360392      1.369999   1.000000   1.000000
   32        1.700952      1.763063   1.000000   1.000000
   33        2.128765      2.063603   1.000000   1.000000
   34        2.476294      2.356199   1.000000   1.000000
   35        2.590008      2.589455   1.000000   1.000000
   36        2.843172      2.827143   1.000000   1.000000
   37        3.061614      3.159751   1.000000   1.000000
   38        3.698242      3.668667   1.000000   1.000000
   39        4.046842      4.104723   1.000000   1.000000
   40        4.249147      4.201951   1.000000   1.000000
   41        4.382391      4.401375   1.000000   1.000000
   42        4.588246      4.597513   1.000000   1.000000
   43        4.685378      4.687295   1.000000   1.000000
   44        5.010252      5.018588   1.000000   1.000000
   45        5.200620      5.228406   1.000000   1.000000
   46        5.478062      5.472374   1.000000   1.000000
   47        5.747585      5.703012   1.000000   1.000000
   48        8.439731      8.423310   0.000000   0.000000
   49        8.575636      8.569250   0.000000   0.000000
   50        8.710003      8.712490   0.000000   0.000000
   51        9.055328      9.030185   0.000000   0.000000
   52        9.144632      9.191106   0.000000   0.000000
   53        9.863869      9.900619   0.000000   0.000000
   54       10.069198     10.029075   0.000000   0.000000
   55       11.030285     11.007000   0.000000   0.000000
   56       11.334568     11.347405   0.000000   0.000000
 
  0.5000000E+00  0.1086957E+00  0.0000000E+00  0.8333333E-02
    1      -51.132395    -51.127616   1.000000   1.000000
    2      -51.069098    -51.064624   1.000000   1.000000
    3      -51.069065    -51.064593   1.000000   1.000000
    4      -46.275491    -46.280191   1.000000   1.000000
    5      -46.229311    -46.233801   1.000000   1.000000
    6      -46.229288    -46.233771   1.000000   1.000000
    7      -16.114509    -16.114105   1.000000   1.000000
    8      -16.101875    -16.103024   1.000000   1.000000
    9      -16.089656    -16.087995   1.000000   1.000000
   10      -16.079161    -16.080123   1.000000   1.000000
   11      -16.048697    -16.048149   1.000000   1.000000
   12      -16.045908    -16.046694   1.000000   1.000000
   13      -16.035056    -16.035740   1.000000   1.000000
   14      -16.034833    -16.033668   1.000000   1.000000
   15      -16.024588    -16.024904   1.000000   1.000000
   16      -16.018445    -16.018327   1.000000   1.000000
   17      -11.774612    -11.771449   1.000000   1.000000
   18      -11.586321    -11.589717   1.000000   1.000000
   19      -10.777463    -10.782591   1.000000   1.000000
   20      -10.703307    -10.671512   1.000000   1.000000
   21      -10.619584    -10.655249   1.000000   1.000000
   22      -10.542203    -10.532385   1.000000   1.000000
   23       -3.513769     -3.512089   1.000000   1.000000
   24       -3.355763     -3.357750   1.000000   1.000000
   25       -1.124185     -1.118789   1.000000   1.000000
   26       -1.007093     -1.002208   1.000000   1.000000
   27       -0.881189     -0.901362   1.000000   1.000000
   28       -0.790674     -0.778567   1.000000   1.000000
   29       -0.589523     -0.584323   1.000000   1.000000
   30        1.029973      1.081764   1.000000   1.000000
   31        1.385367      1.407148   1.000000   1.000000
   32        1.693348      1.770929   1.000000   1.000000
   33        2.151024      2.067468   1.000000   1.000000
   34        2.531043      2.349531   1.000000   1.000000
   35        2.590664      2.593719   1.000000   1.000000
   36        2.852050      2.829978   1.000000   1.000000
   37        3.067880      3.210040   1.000000   1.000000
   38        3.693005      3.649870   1.000000   1.000000
   39        4.020055      4.099220   1.000000   1.000000
   40        4.221676      4.167164   1.000000   1.000000
   41        4.383149      4.405375   1.000000   1.000000
   42        4.587212      4.596737   1.000000   1.000000
   43        4.683505      4.684875   1.000000   1.000000
   44        4.981364      5.000426   1.000000   1.000000
   45        5.197529      5.226862   1.000000   1.000000
   46        5.474852      5.474213   1.000000   1.000000
   47        5.756896      5.690304   1.000000   1.000000
   48        8.454402      8.431132   0.000000   0.000000
   49        8.579962      8.572198   0.000000   0.000000
   50        8.706546      8.711251   0.000000   0.000000
   51        9.035651      9.011920   0.000000   0.000000
   52        9.150958      9.208669   0.000000   0.000000
   53        9.850008      9.911141   0.000000   0.000000
   54       10.088545     10.022581   0.000000   0.000000
   55       10.997269     10.970770   0.000000   0.000000
   56       11.351774     11.364783   0.000000   0.000000
 
  0.5000000E+00  0.1304348E+00  0.0000000E+00  0.8333333E-02
    1      -51.132394    -51.127616   1.000000   1.000000
    2      -51.069098    -51.064622   1.000000   1.000000
    3      -51.069063    -51.064593   1.000000   1.000000
    4      -46.275490    -46.280190   1.000000   1.000000
    5      -46.229309    -46.233800   1.000000   1.000000
    6      -46.229289    -46.233769   1.000000   1.000000
    7      -16.117474    -16.117129   1.000000   1.000000
    8      -16.102111    -16.103155   1.000000   1.000000
    9      -16.088786    -16.087173   1.000000   1.000000
   10      -16.077119    -16.078085   1.000000   1.000000
   11      -16.049301    -16.048838   1.000000   1.000000
   12      -16.045809    -16.046570   1.000000   1.000000
   13      -16.035314    -16.035910   1.000000   1.000000
   14      -16.034744    -16.033558   1.000000   1.000000
   15      -16.024655    -16.024994   1.000000   1.000000
   16      -16.017059    -16.016961   1.000000   1.000000
   17      -11.783433    -11.779911   1.000000   1.000000
   18      -11.560953    -11.564979   1.000000   1.000000
   19      -10.787905    -10.794117   1.000000   1.000000
   20      -10.714803    -10.682137   1.000000   1.000000
   21      -10.624372    -10.659974   1.000000   1.000000
   22      -10.535989    -10.525692   1.000000   1.000000
   23       -3.532417     -3.530569   1.000000   1.000000
   24       -3.340570     -3.342967   1.000000   1.000000
   25       -1.139108     -1.133868   1.000000   1.000000
   26       -1.003369     -0.997624   1.000000   1.000000
   27       -0.882726     -0.907727   1.000000   1.000000
   28       -0.777211     -0.764870   1.000000   1.000000
   29       -0.593021     -0.587679   1.000000   1.000000
   30        1.013449      1.078175   1.000000   1.000000
   31        1.409902      1.449962   1.000000   1.000000
   32        1.693848      1.780051   1.000000   1.000000
   33        2.170752      2.072123   1.000000   1.000000
   34        2.570976      2.342177   1.000000   1.000000
   35        2.613619      2.602593   1.000000   1.000000
   36        2.862677      2.834682   1.000000   1.000000
   37        3.075765      3.264179   1.000000   1.000000
   38        3.688587      3.630897   1.000000   1.000000
   39        3.991424      4.090016   1.000000   1.000000
   40        4.186333      4.129559   1.000000   1.000000
   41        4.383506      4.408115   1.000000   1.000000
   42        4.586036      4.592406   1.000000   1.000000
   43        4.681521      4.682837   1.000000   1.000000
   44        4.950007      4.984246   1.000000   1.000000
   45        5.192835      5.216333   1.000000   1.000000
   46        5.468848      5.479228   1.000000   1.000000
   47        5.766798      5.676668   1.000000   1.000000
   48        8.471143      8.439913   0.000000   0.000000
   49        8.585048      8.575884   0.000000   0.000000
   50        8.702760      8.709008   0.000000   0.000000
   51        9.010184      8.992046   0.000000   0.000000
   52        9.161514      9.226966   0.000000   0.000000
   53        9.829958      9.917625   0.000000   0.000000
   54       10.112515     10.018296   0.000000   0.000000
   55       10.969185     10.941965   0.000000   0.000000
   56       11.362120     11.372671   0.000000   0.000000
 
  0.5000000E+00  0.1521739E+00  0.0000000E+00  0.8333333E-02
    1      -51.132395    -51.127617   1.000000   1.000000
    2      -51.069098    -51.064621   1.000000   1.000000
    3      -51.069062    -51.064593   1.000000   1.000000
    4      -46.275492    -46.280191   1.000000   1.000000
    5      -46.229308    -46.233800   1.000000   1.000000
    6      -46.229288    -46.233767   1.000000   1.000000
    7      -16.120467    -16.120170   1.000000   1.000000
    8      -16.102348    -16.103275   1.000000   1.000000
    9      -16.087795    -16.086260   1.000000   1.000000
   10      -16.075242    -16.076204   1.000000   1.000000
   11      -16.049927    -16.049546   1.000000   1.000000
   12      -16.045696    -16.046427   1.000000   1.000000
   13      -16.035594    -16.036087   1.000000   1.000000
   14      -16.034641    -16.033479   1.000000   1.000000
   15      -16.024680    -16.025026   1.000000   1.000000
   16      -16.015584    -16.015503   1.000000   1.000000
   17      -11.790616    -11.786799   1.000000   1.000000
   18      -11.534631    -11.539258   1.000000   1.000000
   19      -10.800474    -10.807057   1.000000   1.000000
   20      -10.726542    -10.696606   1.000000   1.000000
   21      -10.629896    -10.661980   1.000000   1.000000
   22      -10.529854    -10.519607   1.000000   1.000000
   23       -3.551852     -3.549892   1.000000   1.000000
   24       -3.325041     -3.327800   1.000000   1.000000
   25       -1.154067     -1.149212   1.000000   1.000000
   26       -1.000776     -0.994490   1.000000   1.000000
   27       -0.883241     -0.911892   1.000000   1.000000
   28       -0.764389     -0.752029   1.000000   1.000000
   29       -0.596719     -0.591410   1.000000   1.000000
   30        0.999025      1.074769   1.000000   1.000000
   31        1.433300      1.497901   1.000000   1.000000
   32        1.703550      1.790150   1.000000   1.000000
   33        2.187666      2.077277   1.000000   1.000000
   34        2.577026      2.335414   1.000000   1.000000
   35        2.674974      2.616127   1.000000   1.000000
   36        2.874924      2.841213   1.000000   1.000000
   37        3.085184      3.319238   1.000000   1.000000
   38        3.686042      3.613973   1.000000   1.000000
   39        3.961820      4.074313   1.000000   1.000000
   40        4.145223      4.092687   1.000000   1.000000
   41        4.382506      4.408724   1.000000   1.000000
   42        4.584080      4.584089   1.000000   1.000000
   43        4.678703      4.681637   1.000000   1.000000
   44        4.917661      4.970837   1.000000   1.000000
   45        5.186859      5.196369   1.000000   1.000000
   46        5.460055      5.487028   1.000000   1.000000
   47        5.776217      5.662968   1.000000   1.000000
   48        8.489363      8.449252   0.000000   0.000000
   49        8.590644      8.580351   0.000000   0.000000
   50        8.698959      8.705368   0.000000   0.000000
   51        8.979989      8.970717   0.000000   0.000000
   52        9.175584      9.245621   0.000000   0.000000
   53        9.804314      9.912342   0.000000   0.000000
   54       10.139608     10.023209   0.000000   0.000000
   55       10.946606     10.921386   0.000000   0.000000
   56       11.366129     11.374081   0.000000   0.000000
 
  0.5000000E+00  0.1739130E+00  0.0000000E+00  0.8333333E-02
    1      -51.132395    -51.127617   1.000000   1.000000
    2      -51.069097    -51.064620   1.000000   1.000000
    3      -51.069061    -51.064591   1.000000   1.000000
    4      -46.275490    -46.280190   1.000000   1.000000
    5      -46.229306    -46.233799   1.000000   1.000000
    6      -46.229287    -46.233766   1.000000   1.000000
    7      -16.123440    -16.123182   1.000000   1.000000
    8      -16.102564    -16.103374   1.000000   1.000000
    9      -16.086718    -16.085274   1.000000   1.000000
   10      -16.073562    -16.074512   1.000000   1.000000
   11      -16.050546    -16.050241   1.000000   1.000000
   12      -16.045568    -16.046265   1.000000   1.000000
   13      -16.035871    -16.036267   1.000000   1.000000
   14      -16.034559    -16.033445   1.000000   1.000000
   15      -16.024662    -16.024999   1.000000   1.000000
   16      -16.014030    -16.013964   1.000000   1.000000
   17      -11.796124    -11.792084   1.000000   1.000000
   18      -11.507565    -11.512762   1.000000   1.000000
   19      -10.815014    -10.821253   1.000000   1.000000
   20      -10.738353    -10.712336   1.000000   1.000000
   21      -10.635869    -10.663588   1.000000   1.000000
   22      -10.523991    -10.514133   1.000000   1.000000
   23       -3.571967     -3.569954   1.000000   1.000000
   24       -3.309186     -3.312239   1.000000   1.000000
   25       -1.168933     -1.164658   1.000000   1.000000
   26       -0.999023     -0.992726   1.000000   1.000000
   27       -0.882933     -0.913671   1.000000   1.000000
   28       -0.752889     -0.740604   1.000000   1.000000
   29       -0.600266     -0.595204   1.000000   1.000000
   30        0.987173      1.071309   1.000000   1.000000
   31        1.455744      1.550498   1.000000   1.000000
   32        1.722369      1.800971   1.000000   1.000000
   33        2.201520      2.082521   1.000000   1.000000
   34        2.579488      2.330657   1.000000   1.000000
   35        2.741530      2.633985   1.000000   1.000000
   36        2.888781      2.849494   1.000000   1.000000
   37        3.095879      3.370990   1.000000   1.000000
   38        3.686401      3.602500   1.000000   1.000000
   39        3.931946      4.040258   1.000000   1.000000
   40        4.100653      4.069467   1.000000   1.000000
   41        4.379681      4.405775   1.000000   1.000000
   42        4.580239      4.572752   1.000000   1.000000
   43        4.674295      4.681264   1.000000   1.000000
   44        4.885975      4.960538   1.000000   1.000000
   45        5.180054      5.167888   1.000000   1.000000
   46        5.448782      5.496046   1.000000   1.000000
   47        5.784094      5.650192   1.000000   1.000000
   48        8.508446      8.458735   0.000000   0.000000
   49        8.596384      8.585599   0.000000   0.000000
   50        8.695562      8.699945   0.000000   0.000000
   51        8.945836      8.948207   0.000000   0.000000
   52        9.192602      9.264346   0.000000   0.000000
   53        9.774103      9.891670   0.000000   0.000000
   54       10.168254     10.040792   0.000000   0.000000
   55       10.929268     10.908408   0.000000   0.000000
   56       11.364612     11.367391   0.000000   0.000000
 