 vasp.5.4.1 24Jun15 (build Jul 08 2015 18:11:14) complex                        
  
 executed on           IFC91_ompi date 2017.02.23  04:12:49
 running on    4 total cores
 distrk:  each k-point on    4 cores,    1 groups
 distr:  one band on NCORES_PER_BAND=   1 cores,    4 groups


--------------------------------------------------------------------------------------------------------


 INCAR:
 POTCAR:    PAW Bi_d 09Feb1998                    
 POTCAR:    PAW O 22Mar2012                       
 POTCAR:    PAW Fe_pv 02Aug2007                   
 POTCAR:    PAW Bi_d 09Feb1998                    
   VRHFIN =Bi:                                                                  
   LEXCH  = CA                                                                  
   EATOM  =  1963.6922 eV,  144.3273 Ry                                         
                                                                                
   TITEL  = PAW Bi_d 09Feb1998                                                  
   LULTRA =        F    use ultrasoft PP ?                                      
   IUNSCR =        1    unscreen: 0-lin 1-nonlin 2-no                           
   RPACOR =    2.200    partial core radius                                     
   POMASS =  208.980; ZVAL   =   15.000    mass and valenz                      
   RCORE  =    2.500    outmost cutoff radius                                   
   RWIGS  =    3.090; RWIGS  =    1.635    wigner-seitz radius (au A)           
   ENMAX  =  242.856; ENMIN  =  182.142 eV                                      
   ICORE  =        3    local potential                                         
   LCOR   =        T    correct aug charges                                     
   LPAW   =        T    paw PP                                                  
   EAUG   =  442.899                                                            
   DEXC   =    0.000                                                            
   RMAX   =    2.551    core radius for proj-oper                               
   RAUG   =    1.300    factor for augmentation sphere                          
   RDEP   =    2.650    radius for radial grids                                 
   RDEPT  =    2.039    core radius for aug-charge                              
                                                                                
   Atomic configuration                                                         
   16 entries                                                                   
     n  l   j            E        occ.                                          
     1  0  0.50    -89980.6503   2.0000                                         
     2  0  0.50    -16181.3045   2.0000                                         
     2  1  1.50    -13862.2990   6.0000                                         
     3  0  0.50     -3908.4084   2.0000                                         
     3  1  1.50     -3244.8754   6.0000                                         
     3  2  2.50     -2577.2631  10.0000                                         
     4  0  0.50      -896.4147   2.0000                                         
     4  1  1.50      -678.6023   6.0000                                         
     4  2  2.50      -429.2334  10.0000                                         
     4  3  3.50      -153.4278  14.0000                                         
     5  0  0.50      -157.1988   2.0000                                         
     5  1  1.50       -95.6521   6.0000                                         
     5  2  2.50       -27.2461  10.0000                                         
     6  0  0.50       -14.6896   2.0000                                         
     6  1  1.50        -4.7725   3.0000                                         
     5  3  2.50        -2.7212   0.0000                                         
   Description                                                                  
     l       E           TYP  RCUT    TYP  RCUT                                 
     2    -27.2461135     23  2.500                                             
     2     -1.3605826     23  2.500                                             
     0    -14.6896090     23  2.500                                             
     0      6.8029130     23  2.500                                             
     1     -4.7725387     23  2.500                                             
     1     13.6058260     23  2.500                                             
     3     -1.3605826      7  2.500                                             
  local pseudopotential read in
  partial core-charges read in
  partial kinetic energy density read in
  atomic valenz-charges read in
  non local Contribution for L=           2  read in
    real space projection operators read in
  non local Contribution for L=           2  read in
    real space projection operators read in
  non local Contribution for L=           0  read in
    real space projection operators read in
  non local Contribution for L=           0  read in
    real space projection operators read in
  non local Contribution for L=           1  read in
    real space projection operators read in
  non local Contribution for L=           1  read in
    real space projection operators read in
    PAW grid and wavefunctions read in
 
   number of l-projection  operators is LMAX  =           6
   number of lm-projection operators is LMMAX =          18
 
 POTCAR:    PAW O 22Mar2012                       
   VRHFIN =O: s2p4                                                              
   LEXCH  = CA                                                                  
   EATOM  =   431.4380 eV,   31.7098 Ry                                         
                                                                                
   TITEL  = PAW O 22Mar2012                                                     
   LULTRA =        F    use ultrasoft PP ?                                      
   IUNSCR =        1    unscreen: 0-lin 1-nonlin 2-no                           
   RPACOR =    1.200    partial core radius                                     
   POMASS =   16.000; ZVAL   =    6.000    mass and valenz                      
   RCORE  =    1.520    outmost cutoff radius                                   
   RWIGS  =    1.550; RWIGS  =    0.820    wigner-seitz radius (au A)           
   ENMAX  =  400.000; ENMIN  =  300.000 eV                                      
   ICORE  =        2    local potential                                         
   LCOR   =        T    correct aug charges                                     
   LPAW   =        T    paw PP                                                  
   EAUG   =  605.392                                                            
   DEXC   =    0.000                                                            
   RMAX   =    1.553    core radius for proj-oper                               
   RAUG   =    1.300    factor for augmentation sphere                          
   RDEP   =    1.550    radius for radial grids                                 
   RDEPT  =    1.329    core radius for aug-charge                              
                                                                                
   Atomic configuration                                                         
    4 entries                                                                   
     n  l   j            E        occ.                                          
     1  0  0.50      -510.4605   2.0000                                         
     2  0  0.50       -23.7367   2.0000                                         
     2  1  0.50        -9.1995   4.0000                                         
     3  2  1.50        -9.5241   0.0000                                         
   Description                                                                  
     l       E           TYP  RCUT    TYP  RCUT                                 
     0    -23.7366993     23  1.200                                             
     0     -9.5240782     23  1.200                                             
     1     -9.1994509     23  1.520                                             
     1      8.1634956     23  1.520                                             
     2     -9.5240782      7  1.500                                             
  local pseudopotential read in
  partial core-charges read in
  partial kinetic energy density read in
  kinetic energy density of atom read in
  atomic valenz-charges read in
  non local Contribution for L=           0  read in
    real space projection operators read in
  non local Contribution for L=           0  read in
    real space projection operators read in
  non local Contribution for L=           1  read in
    real space projection operators read in
  non local Contribution for L=           1  read in
    real space projection operators read in
    PAW grid and wavefunctions read in
 
   number of l-projection  operators is LMAX  =           4
   number of lm-projection operators is LMMAX =           8
 
 POTCAR:    PAW Fe_pv 02Aug2007                   
   VRHFIN =Fe:  d7 s1                                                           
   LEXCH  = CA                                                                  
   EATOM  =  2460.5054 eV,  180.8420 Ry                                         
                                                                                
   TITEL  = PAW Fe_pv 02Aug2007                                                 
   LULTRA =        F    use ultrasoft PP ?                                      
   IUNSCR =        1    unscreen: 0-lin 1-nonlin 2-no                           
   RPACOR =    1.750    partial core radius                                     
   POMASS =   55.847; ZVAL   =   14.000    mass and valenz                      
   RCORE  =    2.200    outmost cutoff radius                                   
   RWIGS  =    2.200; RWIGS  =    1.164    wigner-seitz radius (au A)           
   ENMAX  =  293.303; ENMIN  =  219.977 eV                                      
   ICORE  =        3    local potential                                         
   LCOR   =        T    correct aug charges                                     
   LPAW   =        T    paw PP                                                  
   EAUG   =  578.342                                                            
   DEXC   =    0.000                                                            
   RMAX   =    2.249    core radius for proj-oper                               
   RAUG   =    1.300    factor for augmentation sphere                          
   RDEP   =    2.296    radius for radial grids                                 
   RDEPT  =    1.766    core radius for aug-charge                              
                                                                                
   Atomic configuration                                                         
    8 entries                                                                   
     n  l   j            E        occ.                                          
     1  0  0.50     -6959.8071   2.0000                                         
     2  0  0.50      -811.1996   2.0000                                         
     2  1  1.50      -692.1696   6.0000                                         
     3  0  0.50       -88.7875   2.0000                                         
     3  1  1.50       -55.4703   6.0000                                         
     3  2  2.50        -4.0733   7.0000                                         
     4  0  0.50        -4.4654   1.0000                                         
     4  3  2.50        -1.3606   0.0000                                         
   Description                                                                  
     l       E           TYP  RCUT    TYP  RCUT                                 
     1    -55.4702629     23  2.000                                             
     1     -5.4423304     23  2.000                                             
     2     -4.0732955     23  2.200                                             
     2     -5.4338781     23  2.200                                             
     0     -4.4654424     23  2.200                                             
     0     27.2116520     23  2.200                                             
     3     -1.3605826     23  2.200                                             
  local pseudopotential read in
  partial core-charges read in
  partial kinetic energy density read in
  atomic valenz-charges read in
  non local Contribution for L=           1  read in
    real space projection operators read in
  non local Contribution for L=           1  read in
    real space projection operators read in
  non local Contribution for L=           2  read in
    real space projection operators read in
  non local Contribution for L=           2  read in
    real space projection operators read in
  non local Contribution for L=           0  read in
    real space projection operators read in
  non local Contribution for L=           0  read in
    real space projection operators read in
    PAW grid and wavefunctions read in
 
   number of l-projection  operators is LMAX  =           6
   number of lm-projection operators is LMMAX =          18
 
  PAW Bi_d 09Feb1998                    :
 energy of atom  1       EATOM=-1963.6922
 kinetic energy error for atom=    0.0041 (will be added to EATOM!!)
  PAW O 22Mar2012                       :
 energy of atom  2       EATOM= -431.4380
 kinetic energy error for atom=    0.0204 (will be added to EATOM!!)
  PAW Fe_pv 02Aug2007                   :
 energy of atom  3       EATOM=-2460.5054
 kinetic energy error for atom=    0.0062 (will be added to EATOM!!)
 
 
 POSCAR: Reproduced from the Neaton et al paper  
  positions in direct lattice
  velocities in cartesian coordinates
 exchange correlation table for  LEXCH =        2
   RHO(1)=    0.500       N(1)  =     2000
   RHO(2)=  100.500       N(2)  =     4000
 


--------------------------------------------------------------------------------------------------------


 ion  position               nearest neighbor table
   1  0.000  0.000  0.000-   7 2.31   8 2.31   6 2.31   5 2.42   3 2.42   4 2.42   9 3.07  10 3.28
                            10 3.28  10 3.28   2 3.89   2 3.89   2 3.89   2 3.89   2 3.89   2 3.89
   2  0.500  0.500  0.500-   4 2.31   3 2.31   5 2.31   6 2.42   8 2.42   7 2.42  10 3.07   9 3.28
                             9 3.28   9 3.28   1 3.89   1 3.89   1 3.89   1 3.89   1 3.89   1 3.89
   3  0.541  0.942  0.397-   9 1.93  10 2.07   2 2.31   1 2.42
   4  0.397  0.541  0.942-   9 1.93  10 2.07   2 2.31   1 2.42
   5  0.942  0.397  0.541-   9 1.93  10 2.07   2 2.31   1 2.42
   6  0.442  0.041  0.897-  10 1.93   9 2.07   1 2.31   2 2.42
   7  0.041  0.897  0.442-  10 1.93   9 2.07   1 2.31   2 2.42
   8  0.897  0.442  0.041-  10 1.93   9 2.07   1 2.31   2 2.42
   9  0.228  0.228  0.228-   4 1.93   3 1.93   5 1.93   7 2.07   8 2.07   6 2.07   1 3.07   2 3.28
                             2 3.28   2 3.28
  10  0.728  0.728  0.728-   8 1.93   7 1.93   6 1.93   3 2.07   4 2.07   5 2.07   2 3.07   1 3.28
                             1 3.28   1 3.28
 
  LATTYP: Found a trigonal (rhomboedric) cell.
 ALAT       =     5.5064099820
 COS(alpha) =     0.5013330136
  
  Lattice vectors:
  
 A1 = (   5.5064080576,   0.0037588915,   0.0026577369)
 A2 = (   2.7572911080,   4.7663287310,   0.0026577369)
 A3 = (   2.7572911080,   1.5916020081,   4.4927385505)


Analysis of symmetry for initial positions (statically):
=====================================================================
 Subroutine PRICEL returns:
 Original cell was already a primitive cell.
 

 Routine SETGRP: Setting up the symmetry group for a 
 trigonal (rhombohedral) supercell.


 Subroutine GETGRP returns: Found  6 space group operations
 (whereof  3 operations were pure point group operations)
 out of a pool of 12 trial point group operations.


The static configuration has the point symmetry C_3 .
 The point group associated with its full space group is C_3v.


Analysis of symmetry for dynamics (positions and initial velocities):
=====================================================================
 Subroutine PRICEL returns:
 Original cell was already a primitive cell.
 

 Routine SETGRP: Setting up the symmetry group for a 
 trigonal (rhombohedral) supercell.


 Subroutine GETGRP returns: Found  6 space group operations
 (whereof  3 operations were pure point group operations)
 out of a pool of 12 trial point group operations.


The dynamic configuration has the point symmetry C_3 .
 The point group associated with its full space group is C_3v.


Analysis of magnetic symmetry:
=====================================================================
 Subroutine PRICEL returns:
 Original cell was already a primitive cell.
 

 Subroutine MAGSYM returns: Found  6 space group operations
 (whereof  3 operations were pure point group operations)
 out of a pool of  6 trial space group operations
 (whereof  3 operations were pure point group operations)
 and found also     1 'primitive' translations


The magnetic configuration has the point symmetry C_3 .
 The point group associated with its full space group is C_3v.
 
 
 KPOINTS: Gamma centred mesh                      

Automatic generation of k-mesh.
Space group operators:
 irot       det(A)        alpha          n_x          n_y          n_z        tau_x        tau_y        tau_z
    1     1.000000     0.000001     1.000000     0.000000     0.000000     0.000000     0.000000     0.000000
    2     1.000000   120.000000    -0.816558    -0.471345    -0.333266     0.000000     0.000000     0.000000
    3     1.000000   120.000000     0.816558     0.471345     0.333266     0.000000     0.000000     0.000000
    4    -1.000000   179.999999     0.000000    -0.577321     0.816517     0.500431     0.500431     0.500431
    5    -1.000000   180.000000    -0.499924     0.866069    -0.000000     0.500431     0.500431     0.500431
    6    -1.000000   179.999999    -0.499924     0.288748     0.816517     0.500431     0.500431     0.500431
 
 Subroutine IBZKPT returns following result:
 ===========================================
 
 Found     65 irreducible k-points:
 
 Following reciprocal coordinates:
            Coordinates               Weight
  0.000000  0.000000  0.000000      1.000000
  0.125000 -0.000000  0.000000      6.000000
  0.250000 -0.000000  0.000000      6.000000
  0.375000  0.000000  0.000000      6.000000
  0.500000 -0.000000  0.000000      3.000000
  0.125000  0.125000  0.000000      6.000000
  0.250000  0.125000  0.000000     12.000000
  0.375000  0.125000  0.000000     12.000000
  0.500000  0.125000  0.000000     12.000000
 -0.375000  0.125000 -0.000000     12.000000
 -0.250000  0.125000 -0.000000     12.000000
 -0.125000  0.125000 -0.000000      6.000000
  0.250000  0.250000  0.000000      6.000000
  0.375000  0.250000 -0.000000     12.000000
  0.500000  0.250000  0.000000     12.000000
 -0.375000  0.250000 -0.000000     12.000000
 -0.250000  0.250000 -0.000000      6.000000
  0.375000  0.375000  0.000000      6.000000
  0.500000  0.375000  0.000000     12.000000
 -0.375000  0.375000 -0.000000      6.000000
  0.500000  0.500000  0.000000      3.000000
  0.125000  0.125000  0.125000      2.000000
  0.250000  0.125000  0.125000      6.000000
  0.375000  0.125000  0.125000      6.000000
  0.500000  0.125000  0.125000      6.000000
 -0.375000  0.125000  0.125000      6.000000
 -0.250000  0.125000  0.125000      6.000000
 -0.125000  0.125000  0.125000      6.000000
  0.250000  0.250000  0.125000      6.000000
  0.375000  0.250000  0.125000     12.000000
  0.500000  0.250000  0.125000     12.000000
 -0.375000  0.250000  0.125000     12.000000
 -0.250000  0.250000  0.125000     12.000000
 -0.125000  0.250000  0.125000     12.000000
  0.375000  0.375000  0.125000      6.000000
  0.500000  0.375000  0.125000     12.000000
 -0.375000  0.375000  0.125000     12.000000
 -0.250000  0.375000  0.125000     12.000000
 -0.125000  0.375000  0.125000     12.000000
  0.500000  0.500000  0.125000      6.000000
 -0.375000  0.500000  0.125000     12.000000
 -0.250000  0.500000  0.125000     12.000000
 -0.125000  0.500000  0.125000      6.000000
 -0.375000 -0.375000  0.125000      6.000000
 -0.250000 -0.375000  0.125000     12.000000
 -0.250000 -0.250000  0.125000      6.000000
  0.250000  0.250000  0.250000      2.000000
  0.375000  0.250000  0.250000      6.000000
  0.500000  0.250000  0.250000      6.000000
 -0.375000  0.250000  0.250000      6.000000
 -0.250000  0.250000  0.250000      6.000000
  0.375000  0.375000  0.250000      6.000000
  0.500000  0.375000  0.250000     12.000000
 -0.375000  0.375000  0.250000     12.000000
 -0.250000  0.375000  0.250000     12.000000
  0.500000  0.500000  0.250000      6.000000
 -0.375000  0.500000  0.250000     12.000000
 -0.250000  0.500000  0.250000      6.000000
 -0.375000 -0.375000  0.250000      6.000000
  0.375000  0.375000  0.375000      2.000000
  0.500000  0.375000  0.375000      6.000000
 -0.375000  0.375000  0.375000      6.000000
  0.500000  0.500000  0.375000      6.000000
 -0.375000  0.500000  0.375000      6.000000
  0.500000  0.500000  0.500000      1.000000
 
 Following cartesian coordinates:
            Coordinates               Weight
  0.000000  0.000000  0.000000      1.000000
  0.022714 -0.013135 -0.009287      6.000000
  0.045429 -0.026270 -0.018574      6.000000
  0.068143 -0.039405 -0.027861      6.000000
  0.090857 -0.052540 -0.037148      3.000000
  0.022701  0.013104 -0.018574      6.000000
  0.045415 -0.000031 -0.027861     12.000000
  0.068129 -0.013166 -0.037148     12.000000
  0.090844 -0.026301 -0.046435     12.000000
 -0.068156  0.065643  0.018574     12.000000
 -0.045442  0.052508  0.009287     12.000000
 -0.022728  0.039373 -0.000000      6.000000
  0.045402  0.026207 -0.037148      6.000000
  0.068116  0.013073 -0.046435     12.000000
  0.090830 -0.000062 -0.055722     12.000000
 -0.068170  0.091882  0.009287     12.000000
 -0.045455  0.078747 -0.000000      6.000000
  0.068103  0.039311 -0.055722      6.000000
  0.090817  0.026176 -0.065009     12.000000
 -0.068183  0.118120 -0.000000      6.000000
  0.090803  0.052415 -0.074297      3.000000
  0.022687  0.013096  0.009260      2.000000
  0.045402 -0.000039 -0.000028      6.000000
  0.068116 -0.013174 -0.009315      6.000000
  0.090830 -0.026309 -0.018602      6.000000
 -0.068170  0.065635  0.046408      6.000000
 -0.045455  0.052501  0.037121      6.000000
 -0.022741  0.039366  0.027834      6.000000
  0.045388  0.026200 -0.009315      6.000000
  0.068103  0.013065 -0.018602     12.000000
  0.090817 -0.000070 -0.027889     12.000000
 -0.068183  0.091874  0.037121     12.000000
 -0.045469  0.078739  0.027834     12.000000
 -0.022755  0.065604  0.018547     12.000000
  0.068089  0.039303 -0.027889      6.000000
  0.090803  0.026168 -0.037176     12.000000
 -0.068197  0.118113  0.027834     12.000000
 -0.045482  0.104978  0.018547     12.000000
 -0.022768  0.091843  0.009260     12.000000
  0.090790  0.052407 -0.046463      6.000000
 -0.068210  0.144351  0.018547     12.000000
 -0.045496  0.131216  0.009260     12.000000
 -0.022781  0.118081 -0.000028      6.000000
 -0.068116 -0.039319  0.083556      6.000000
 -0.045402 -0.052454  0.074269     12.000000
 -0.045415 -0.026215  0.064982      6.000000
  0.045375  0.026192  0.018519      2.000000
  0.068089  0.013057  0.009232      6.000000
  0.090803 -0.000078 -0.000055      6.000000
 -0.068197  0.091866  0.064954      6.000000
 -0.045482  0.078731  0.055667      6.000000
  0.068076  0.039296 -0.000055      6.000000
  0.090790  0.026161 -0.009342     12.000000
 -0.068210  0.118105  0.055667     12.000000
 -0.045496  0.104970  0.046380     12.000000
  0.090777  0.052399 -0.018629      6.000000
 -0.068223  0.144343  0.046380     12.000000
 -0.045509  0.131209  0.037093      6.000000
 -0.068129 -0.039327  0.111390      6.000000
  0.068062  0.039288  0.027779      2.000000
  0.090777  0.026153  0.018492      6.000000
 -0.068223  0.118097  0.083501      6.000000
  0.090763  0.052392  0.009204      6.000000
 -0.068237  0.144336  0.074214      6.000000
  0.090750  0.052384  0.037038      1.000000
 
 
 Subroutine IBZKPT_HF returns following result:
 ==============================================
 
 Found    512 k-points in 1st BZ
 the following    512 k-points will be used (e.g. in the exchange kernel)
 Following reciprocal coordinates:   # in IRBZ
  0.000000  0.000000  0.000000    0.00195312   1 t-inv F
  0.125000 -0.000000  0.000000    0.00195312   2 t-inv F
  0.250000 -0.000000  0.000000    0.00195312   3 t-inv F
  0.375000  0.000000  0.000000    0.00195312   4 t-inv F
  0.500000 -0.000000  0.000000    0.00195312   5 t-inv F
  0.125000  0.125000  0.000000    0.00195312   6 t-inv F
  0.250000  0.125000  0.000000    0.00195312   7 t-inv F
  0.375000  0.125000  0.000000    0.00195312   8 t-inv F
  0.500000  0.125000  0.000000    0.00195312   9 t-inv F
 -0.375000  0.125000 -0.000000    0.00195312  10 t-inv F
 -0.250000  0.125000 -0.000000    0.00195312  11 t-inv F
 -0.125000  0.125000 -0.000000    0.00195312  12 t-inv F
  0.250000  0.250000  0.000000    0.00195312  13 t-inv F
  0.375000  0.250000 -0.000000    0.00195312  14 t-inv F
  0.500000  0.250000  0.000000    0.00195312  15 t-inv F
 -0.375000  0.250000 -0.000000    0.00195312  16 t-inv F
 -0.250000  0.250000 -0.000000    0.00195312  17 t-inv F
  0.375000  0.375000  0.000000    0.00195312  18 t-inv F
  0.500000  0.375000  0.000000    0.00195312  19 t-inv F
 -0.375000  0.375000 -0.000000    0.00195312  20 t-inv F
  0.500000  0.500000  0.000000    0.00195312  21 t-inv F
  0.125000  0.125000  0.125000    0.00195312  22 t-inv F
  0.250000  0.125000  0.125000    0.00195312  23 t-inv F
  0.375000  0.125000  0.125000    0.00195312  24 t-inv F
  0.500000  0.125000  0.125000    0.00195312  25 t-inv F
 -0.375000  0.125000  0.125000    0.00195312  26 t-inv F
 -0.250000  0.125000  0.125000    0.00195312  27 t-inv F
 -0.125000  0.125000  0.125000    0.00195312  28 t-inv F
  0.250000  0.250000  0.125000    0.00195312  29 t-inv F
  0.375000  0.250000  0.125000    0.00195312  30 t-inv F
  0.500000  0.250000  0.125000    0.00195312  31 t-inv F
 -0.375000  0.250000  0.125000    0.00195312  32 t-inv F
 -0.250000  0.250000  0.125000    0.00195312  33 t-inv F
 -0.125000  0.250000  0.125000    0.00195312  34 t-inv F
  0.375000  0.375000  0.125000    0.00195312  35 t-inv F
  0.500000  0.375000  0.125000    0.00195312  36 t-inv F
 -0.375000  0.375000  0.125000    0.00195312  37 t-inv F
 -0.250000  0.375000  0.125000    0.00195312  38 t-inv F
 -0.125000  0.375000  0.125000    0.00195312  39 t-inv F
  0.500000  0.500000  0.125000    0.00195312  40 t-inv F
 -0.375000  0.500000  0.125000    0.00195312  41 t-inv F
 -0.250000  0.500000  0.125000    0.00195312  42 t-inv F
 -0.125000  0.500000  0.125000    0.00195312  43 t-inv F
 -0.375000 -0.375000  0.125000    0.00195312  44 t-inv F
 -0.250000 -0.375000  0.125000    0.00195312  45 t-inv F
 -0.250000 -0.250000  0.125000    0.00195312  46 t-inv F
  0.250000  0.250000  0.250000    0.00195312  47 t-inv F
  0.375000  0.250000  0.250000    0.00195312  48 t-inv F
  0.500000  0.250000  0.250000    0.00195312  49 t-inv F
 -0.375000  0.250000  0.250000    0.00195312  50 t-inv F
 -0.250000  0.250000  0.250000    0.00195312  51 t-inv F
  0.375000  0.375000  0.250000    0.00195312  52 t-inv F
  0.500000  0.375000  0.250000    0.00195312  53 t-inv F
 -0.375000  0.375000  0.250000    0.00195312  54 t-inv F
 -0.250000  0.375000  0.250000    0.00195312  55 t-inv F
  0.500000  0.500000  0.250000    0.00195312  56 t-inv F
 -0.375000  0.500000  0.250000    0.00195312  57 t-inv F
 -0.250000  0.500000  0.250000    0.00195312  58 t-inv F
 -0.375000 -0.375000  0.250000    0.00195312  59 t-inv F
  0.375000  0.375000  0.375000    0.00195312  60 t-inv F
  0.500000  0.375000  0.375000    0.00195312  61 t-inv F
 -0.375000  0.375000  0.375000    0.00195312  62 t-inv F
  0.500000  0.500000  0.375000    0.00195312  63 t-inv F
 -0.375000  0.500000  0.375000    0.00195312  64 t-inv F
  0.500000  0.500000  0.500000    0.00195312  65 t-inv F
  0.000000  0.125000 -0.000000    0.00195312   2 t-inv F
 -0.000000  0.000000  0.125000    0.00195312   2 t-inv F
  0.000000  0.250000 -0.000000    0.00195312   3 t-inv F
 -0.000000  0.000000  0.250000    0.00195312   3 t-inv F
  0.000000  0.375000  0.000000    0.00195312   4 t-inv F
  0.000000  0.000000  0.375000    0.00195312   4 t-inv F
  0.000000  0.500000 -0.000000    0.00195312   5 t-inv F
 -0.000000  0.000000  0.500000    0.00195312   5 t-inv F
  0.000000  0.125000  0.125000    0.00195312   6 t-inv F
  0.125000  0.000000  0.125000    0.00195312   6 t-inv F
  0.000000  0.250000  0.125000    0.00195312   7 t-inv F
  0.125000  0.000000  0.250000    0.00195312   7 t-inv F
  0.250000  0.000000  0.125000    0.00195312   7 t-inv F spinflp
  0.125000  0.250000  0.000000    0.00195312   7 t-inv F spinflp
  0.000000  0.125000  0.250000    0.00195312   7 t-inv F spinflp
  0.000000  0.375000  0.125000    0.00195312   8 t-inv F
  0.125000  0.000000  0.375000    0.00195312   8 t-inv F
  0.375000  0.000000  0.125000    0.00195312   8 t-inv F spinflp
  0.125000  0.375000  0.000000    0.00195312   8 t-inv F spinflp
  0.000000  0.125000  0.375000    0.00195312   8 t-inv F spinflp
  0.000000  0.500000  0.125000    0.00195312   9 t-inv F
  0.125000  0.000000  0.500000    0.00195312   9 t-inv F
  0.500000  0.000000  0.125000    0.00195312   9 t-inv F spinflp
  0.125000  0.500000  0.000000    0.00195312   9 t-inv F spinflp
  0.000000  0.125000  0.500000    0.00195312   9 t-inv F spinflp
 -0.000000 -0.375000  0.125000    0.00195312  10 t-inv F
  0.125000 -0.000000 -0.375000    0.00195312  10 t-inv F
 -0.375000 -0.000000  0.125000    0.00195312  10 t-inv F spinflp
  0.125000 -0.375000 -0.000000    0.00195312  10 t-inv F spinflp
 -0.000000  0.125000 -0.375000    0.00195312  10 t-inv F spinflp
 -0.000000 -0.250000  0.125000    0.00195312  11 t-inv F
  0.125000 -0.000000 -0.250000    0.00195312  11 t-inv F
 -0.250000 -0.000000  0.125000    0.00195312  11 t-inv F spinflp
  0.125000 -0.250000 -0.000000    0.00195312  11 t-inv F spinflp
 -0.000000  0.125000 -0.250000    0.00195312  11 t-inv F spinflp
 -0.000000 -0.125000  0.125000    0.00195312  12 t-inv F
  0.125000 -0.000000 -0.125000    0.00195312  12 t-inv F
 -0.125000 -0.000000  0.125000    0.00195312  12 t-inv F spinflp
  0.125000 -0.125000 -0.000000    0.00195312  12 t-inv F spinflp
 -0.000000  0.125000 -0.125000    0.00195312  12 t-inv F spinflp
  0.000000  0.250000  0.250000    0.00195312  13 t-inv F
  0.250000  0.000000  0.250000    0.00195312  13 t-inv F
 -0.000000  0.375000  0.250000    0.00195312  14 t-inv F
  0.250000 -0.000000  0.375000    0.00195312  14 t-inv F
  0.375000 -0.000000  0.250000    0.00195312  14 t-inv F spinflp
  0.250000  0.375000 -0.000000    0.00195312  14 t-inv F spinflp
 -0.000000  0.250000  0.375000    0.00195312  14 t-inv F spinflp
  0.000000  0.500000  0.250000    0.00195312  15 t-inv F
  0.250000  0.000000  0.500000    0.00195312  15 t-inv F
  0.500000  0.000000  0.250000    0.00195312  15 t-inv F spinflp
  0.250000  0.500000  0.000000    0.00195312  15 t-inv F spinflp
  0.000000  0.250000  0.500000    0.00195312  15 t-inv F spinflp
 -0.000000 -0.375000  0.250000    0.00195312  16 t-inv F
  0.250000 -0.000000 -0.375000    0.00195312  16 t-inv F
 -0.375000 -0.000000  0.250000    0.00195312  16 t-inv F spinflp
  0.250000 -0.375000 -0.000000    0.00195312  16 t-inv F spinflp
 -0.000000  0.250000 -0.375000    0.00195312  16 t-inv F spinflp
 -0.000000 -0.250000  0.250000    0.00195312  17 t-inv F
  0.250000 -0.000000 -0.250000    0.00195312  17 t-inv F
 -0.250000 -0.000000  0.250000    0.00195312  17 t-inv F spinflp
  0.250000 -0.250000 -0.000000    0.00195312  17 t-inv F spinflp
 -0.000000  0.250000 -0.250000    0.00195312  17 t-inv F spinflp
  0.000000  0.375000  0.375000    0.00195312  18 t-inv F
  0.375000  0.000000  0.375000    0.00195312  18 t-inv F
  0.000000  0.500000  0.375000    0.00195312  19 t-inv F
  0.375000  0.000000  0.500000    0.00195312  19 t-inv F
  0.500000  0.000000  0.375000    0.00195312  19 t-inv F spinflp
  0.375000  0.500000  0.000000    0.00195312  19 t-inv F spinflp
  0.000000  0.375000  0.500000    0.00195312  19 t-inv F spinflp
 -0.000000 -0.375000  0.375000    0.00195312  20 t-inv F
  0.375000 -0.000000 -0.375000    0.00195312  20 t-inv F
 -0.375000 -0.000000  0.375000    0.00195312  20 t-inv F spinflp
  0.375000 -0.375000 -0.000000    0.00195312  20 t-inv F spinflp
 -0.000000  0.375000 -0.375000    0.00195312  20 t-inv F spinflp
  0.000000  0.500000  0.500000    0.00195312  21 t-inv F
  0.500000  0.000000  0.500000    0.00195312  21 t-inv F
  0.125000  0.250000  0.125000    0.00195312  23 t-inv F
  0.125000  0.125000  0.250000    0.00195312  23 t-inv F
  0.125000  0.375000  0.125000    0.00195312  24 t-inv F
  0.125000  0.125000  0.375000    0.00195312  24 t-inv F
  0.125000  0.500000  0.125000    0.00195312  25 t-inv F
  0.125000  0.125000  0.500000    0.00195312  25 t-inv F
  0.125000 -0.375000  0.125000    0.00195312  26 t-inv F
  0.125000  0.125000 -0.375000    0.00195312  26 t-inv F
  0.125000 -0.250000  0.125000    0.00195312  27 t-inv F
  0.125000  0.125000 -0.250000    0.00195312  27 t-inv F
  0.125000 -0.125000  0.125000    0.00195312  28 t-inv F
  0.125000  0.125000 -0.125000    0.00195312  28 t-inv F
  0.125000  0.250000  0.250000    0.00195312  29 t-inv F
  0.250000  0.125000  0.250000    0.00195312  29 t-inv F
  0.125000  0.375000  0.250000    0.00195312  30 t-inv F
  0.250000  0.125000  0.375000    0.00195312  30 t-inv F
  0.375000  0.125000  0.250000    0.00195312  30 t-inv F spinflp
  0.250000  0.375000  0.125000    0.00195312  30 t-inv F spinflp
  0.125000  0.250000  0.375000    0.00195312  30 t-inv F spinflp
  0.125000  0.500000  0.250000    0.00195312  31 t-inv F
  0.250000  0.125000  0.500000    0.00195312  31 t-inv F
  0.500000  0.125000  0.250000    0.00195312  31 t-inv F spinflp
  0.250000  0.500000  0.125000    0.00195312  31 t-inv F spinflp
  0.125000  0.250000  0.500000    0.00195312  31 t-inv F spinflp
  0.125000 -0.375000  0.250000    0.00195312  32 t-inv F
  0.250000  0.125000 -0.375000    0.00195312  32 t-inv F
 -0.375000  0.125000  0.250000    0.00195312  32 t-inv F spinflp
  0.250000 -0.375000  0.125000    0.00195312  32 t-inv F spinflp
  0.125000  0.250000 -0.375000    0.00195312  32 t-inv F spinflp
  0.125000 -0.250000  0.250000    0.00195312  33 t-inv F
  0.250000  0.125000 -0.250000    0.00195312  33 t-inv F
 -0.250000  0.125000  0.250000    0.00195312  33 t-inv F spinflp
  0.250000 -0.250000  0.125000    0.00195312  33 t-inv F spinflp
  0.125000  0.250000 -0.250000    0.00195312  33 t-inv F spinflp
  0.125000 -0.125000  0.250000    0.00195312  34 t-inv F
  0.250000  0.125000 -0.125000    0.00195312  34 t-inv F
 -0.125000  0.125000  0.250000    0.00195312  34 t-inv F spinflp
  0.250000 -0.125000  0.125000    0.00195312  34 t-inv F spinflp
  0.125000  0.250000 -0.125000    0.00195312  34 t-inv F spinflp
  0.125000  0.375000  0.375000    0.00195312  35 t-inv F
  0.375000  0.125000  0.375000    0.00195312  35 t-inv F
  0.125000  0.500000  0.375000    0.00195312  36 t-inv F
  0.375000  0.125000  0.500000    0.00195312  36 t-inv F
  0.500000  0.125000  0.375000    0.00195312  36 t-inv F spinflp
  0.375000  0.500000  0.125000    0.00195312  36 t-inv F spinflp
  0.125000  0.375000  0.500000    0.00195312  36 t-inv F spinflp
  0.125000 -0.375000  0.375000    0.00195312  37 t-inv F
  0.375000  0.125000 -0.375000    0.00195312  37 t-inv F
 -0.375000  0.125000  0.375000    0.00195312  37 t-inv F spinflp
  0.375000 -0.375000  0.125000    0.00195312  37 t-inv F spinflp
  0.125000  0.375000 -0.375000    0.00195312  37 t-inv F spinflp
  0.125000 -0.250000  0.375000    0.00195312  38 t-inv F
  0.375000  0.125000 -0.250000    0.00195312  38 t-inv F
 -0.250000  0.125000  0.375000    0.00195312  38 t-inv F spinflp
  0.375000 -0.250000  0.125000    0.00195312  38 t-inv F spinflp
  0.125000  0.375000 -0.250000    0.00195312  38 t-inv F spinflp
  0.125000 -0.125000  0.375000    0.00195312  39 t-inv F
  0.375000  0.125000 -0.125000    0.00195312  39 t-inv F
 -0.125000  0.125000  0.375000    0.00195312  39 t-inv F spinflp
  0.375000 -0.125000  0.125000    0.00195312  39 t-inv F spinflp
  0.125000  0.375000 -0.125000    0.00195312  39 t-inv F spinflp
  0.125000  0.500000  0.500000    0.00195312  40 t-inv F
  0.500000  0.125000  0.500000    0.00195312  40 t-inv F
  0.125000 -0.375000  0.500000    0.00195312  41 t-inv F
  0.500000  0.125000 -0.375000    0.00195312  41 t-inv F
 -0.375000  0.125000  0.500000    0.00195312  41 t-inv F spinflp
  0.500000 -0.375000  0.125000    0.00195312  41 t-inv F spinflp
  0.125000  0.500000 -0.375000    0.00195312  41 t-inv F spinflp
  0.125000 -0.250000  0.500000    0.00195312  42 t-inv F
  0.500000  0.125000 -0.250000    0.00195312  42 t-inv F
 -0.250000  0.125000  0.500000    0.00195312  42 t-inv F spinflp
  0.500000 -0.250000  0.125000    0.00195312  42 t-inv F spinflp
  0.125000  0.500000 -0.250000    0.00195312  42 t-inv F spinflp
  0.125000 -0.125000  0.500000    0.00195312  43 t-inv F
  0.500000  0.125000 -0.125000    0.00195312  43 t-inv F
 -0.125000  0.125000  0.500000    0.00195312  43 t-inv F spinflp
  0.500000 -0.125000  0.125000    0.00195312  43 t-inv F spinflp
  0.125000  0.500000 -0.125000    0.00195312  43 t-inv F spinflp
  0.125000 -0.375000 -0.375000    0.00195312  44 t-inv F
 -0.375000  0.125000 -0.375000    0.00195312  44 t-inv F
  0.125000 -0.250000 -0.375000    0.00195312  45 t-inv F
 -0.375000  0.125000 -0.250000    0.00195312  45 t-inv F
 -0.250000  0.125000 -0.375000    0.00195312  45 t-inv F spinflp
 -0.375000 -0.250000  0.125000    0.00195312  45 t-inv F spinflp
  0.125000 -0.375000 -0.250000    0.00195312  45 t-inv F spinflp
  0.125000 -0.250000 -0.250000    0.00195312  46 t-inv F
 -0.250000  0.125000 -0.250000    0.00195312  46 t-inv F
  0.250000  0.375000  0.250000    0.00195312  48 t-inv F
  0.250000  0.250000  0.375000    0.00195312  48 t-inv F
  0.250000  0.500000  0.250000    0.00195312  49 t-inv F
  0.250000  0.250000  0.500000    0.00195312  49 t-inv F
  0.250000 -0.375000  0.250000    0.00195312  50 t-inv F
  0.250000  0.250000 -0.375000    0.00195312  50 t-inv F
  0.250000 -0.250000  0.250000    0.00195312  51 t-inv F
  0.250000  0.250000 -0.250000    0.00195312  51 t-inv F
  0.250000  0.375000  0.375000    0.00195312  52 t-inv F
  0.375000  0.250000  0.375000    0.00195312  52 t-inv F
  0.250000  0.500000  0.375000    0.00195312  53 t-inv F
  0.375000  0.250000  0.500000    0.00195312  53 t-inv F
  0.500000  0.250000  0.375000    0.00195312  53 t-inv F spinflp
  0.375000  0.500000  0.250000    0.00195312  53 t-inv F spinflp
  0.250000  0.375000  0.500000    0.00195312  53 t-inv F spinflp
  0.250000 -0.375000  0.375000    0.00195312  54 t-inv F
  0.375000  0.250000 -0.375000    0.00195312  54 t-inv F
 -0.375000  0.250000  0.375000    0.00195312  54 t-inv F spinflp
  0.375000 -0.375000  0.250000    0.00195312  54 t-inv F spinflp
  0.250000  0.375000 -0.375000    0.00195312  54 t-inv F spinflp
  0.250000 -0.250000  0.375000    0.00195312  55 t-inv F
  0.375000  0.250000 -0.250000    0.00195312  55 t-inv F
 -0.250000  0.250000  0.375000    0.00195312  55 t-inv F spinflp
  0.375000 -0.250000  0.250000    0.00195312  55 t-inv F spinflp
  0.250000  0.375000 -0.250000    0.00195312  55 t-inv F spinflp
  0.250000  0.500000  0.500000    0.00195312  56 t-inv F
  0.500000  0.250000  0.500000    0.00195312  56 t-inv F
  0.250000 -0.375000  0.500000    0.00195312  57 t-inv F
  0.500000  0.250000 -0.375000    0.00195312  57 t-inv F
 -0.375000  0.250000  0.500000    0.00195312  57 t-inv F spinflp
  0.500000 -0.375000  0.250000    0.00195312  57 t-inv F spinflp
  0.250000  0.500000 -0.375000    0.00195312  57 t-inv F spinflp
  0.250000 -0.250000  0.500000    0.00195312  58 t-inv F
  0.500000  0.250000 -0.250000    0.00195312  58 t-inv F
 -0.250000  0.250000  0.500000    0.00195312  58 t-inv F spinflp
  0.500000 -0.250000  0.250000    0.00195312  58 t-inv F spinflp
  0.250000  0.500000 -0.250000    0.00195312  58 t-inv F spinflp
  0.250000 -0.375000 -0.375000    0.00195312  59 t-inv F
 -0.375000  0.250000 -0.375000    0.00195312  59 t-inv F
  0.375000  0.500000  0.375000    0.00195312  61 t-inv F
  0.375000  0.375000  0.500000    0.00195312  61 t-inv F
  0.375000 -0.375000  0.375000    0.00195312  62 t-inv F
  0.375000  0.375000 -0.375000    0.00195312  62 t-inv F
  0.375000  0.500000  0.500000    0.00195312  63 t-inv F
  0.500000  0.375000  0.500000    0.00195312  63 t-inv F
  0.375000 -0.375000  0.500000    0.00195312  64 t-inv F
  0.500000  0.375000 -0.375000    0.00195312  64 t-inv F
 -0.375000  0.375000  0.500000    0.00195312  64 t-inv F spinflp
  0.500000 -0.375000  0.375000    0.00195312  64 t-inv F spinflp
  0.375000  0.500000 -0.375000    0.00195312  64 t-inv F spinflp
 -0.125000  0.000000 -0.000000    0.00195312   2 t-inv T
 -0.000000 -0.125000  0.000000    0.00195312   2 t-inv T
  0.000000 -0.000000 -0.125000    0.00195312   2 t-inv T
 -0.250000  0.000000 -0.000000    0.00195312   3 t-inv T
 -0.000000 -0.250000  0.000000    0.00195312   3 t-inv T
  0.000000 -0.000000 -0.250000    0.00195312   3 t-inv T
 -0.375000 -0.000000 -0.000000    0.00195312   4 t-inv T
 -0.000000 -0.375000 -0.000000    0.00195312   4 t-inv T
 -0.000000 -0.000000 -0.375000    0.00195312   4 t-inv T
 -0.125000 -0.125000  0.000000    0.00195312   6 t-inv T
  0.000000 -0.125000 -0.125000    0.00195312   6 t-inv T
 -0.125000  0.000000 -0.125000    0.00195312   6 t-inv T
 -0.250000 -0.125000  0.000000    0.00195312   7 t-inv T
  0.000000 -0.250000 -0.125000    0.00195312   7 t-inv T
 -0.125000  0.000000 -0.250000    0.00195312   7 t-inv T
 -0.250000  0.000000 -0.125000    0.00195312   7 t-inv T spinflp
 -0.125000 -0.250000  0.000000    0.00195312   7 t-inv T spinflp
  0.000000 -0.125000 -0.250000    0.00195312   7 t-inv T spinflp
 -0.375000 -0.125000 -0.000000    0.00195312   8 t-inv T
 -0.000000 -0.375000 -0.125000    0.00195312   8 t-inv T
 -0.125000 -0.000000 -0.375000    0.00195312   8 t-inv T
 -0.375000 -0.000000 -0.125000    0.00195312   8 t-inv T spinflp
 -0.125000 -0.375000 -0.000000    0.00195312   8 t-inv T spinflp
 -0.000000 -0.125000 -0.375000    0.00195312   8 t-inv T spinflp
 -0.500000 -0.125000 -0.000000    0.00195312   9 t-inv T
 -0.000000 -0.500000 -0.125000    0.00195312   9 t-inv T
 -0.125000 -0.000000 -0.500000    0.00195312   9 t-inv T
 -0.500000 -0.000000 -0.125000    0.00195312   9 t-inv T spinflp
 -0.125000 -0.500000 -0.000000    0.00195312   9 t-inv T spinflp
 -0.000000 -0.125000 -0.500000    0.00195312   9 t-inv T spinflp
  0.375000 -0.125000  0.000000    0.00195312  10 t-inv T
  0.000000  0.375000 -0.125000    0.00195312  10 t-inv T
 -0.125000  0.000000  0.375000    0.00195312  10 t-inv T
  0.375000  0.000000 -0.125000    0.00195312  10 t-inv T spinflp
 -0.125000  0.375000  0.000000    0.00195312  10 t-inv T spinflp
  0.000000 -0.125000  0.375000    0.00195312  10 t-inv T spinflp
  0.250000 -0.125000  0.000000    0.00195312  11 t-inv T
  0.000000  0.250000 -0.125000    0.00195312  11 t-inv T
 -0.125000  0.000000  0.250000    0.00195312  11 t-inv T
  0.250000  0.000000 -0.125000    0.00195312  11 t-inv T spinflp
 -0.125000  0.250000  0.000000    0.00195312  11 t-inv T spinflp
  0.000000 -0.125000  0.250000    0.00195312  11 t-inv T spinflp
 -0.250000 -0.250000  0.000000    0.00195312  13 t-inv T
  0.000000 -0.250000 -0.250000    0.00195312  13 t-inv T
 -0.250000  0.000000 -0.250000    0.00195312  13 t-inv T
 -0.375000 -0.250000  0.000000    0.00195312  14 t-inv T
  0.000000 -0.375000 -0.250000    0.00195312  14 t-inv T
 -0.250000  0.000000 -0.375000    0.00195312  14 t-inv T
 -0.375000  0.000000 -0.250000    0.00195312  14 t-inv T spinflp
 -0.250000 -0.375000  0.000000    0.00195312  14 t-inv T spinflp
  0.000000 -0.250000 -0.375000    0.00195312  14 t-inv T spinflp
 -0.500000 -0.250000  0.000000    0.00195312  15 t-inv T
  0.000000 -0.500000 -0.250000    0.00195312  15 t-inv T
 -0.250000  0.000000 -0.500000    0.00195312  15 t-inv T
 -0.500000  0.000000 -0.250000    0.00195312  15 t-inv T spinflp
 -0.250000 -0.500000  0.000000    0.00195312  15 t-inv T spinflp
  0.000000 -0.250000 -0.500000    0.00195312  15 t-inv T spinflp
  0.375000 -0.250000  0.000000    0.00195312  16 t-inv T
  0.000000  0.375000 -0.250000    0.00195312  16 t-inv T
 -0.250000  0.000000  0.375000    0.00195312  16 t-inv T
  0.375000  0.000000 -0.250000    0.00195312  16 t-inv T spinflp
 -0.250000  0.375000  0.000000    0.00195312  16 t-inv T spinflp
  0.000000 -0.250000  0.375000    0.00195312  16 t-inv T spinflp
 -0.375000 -0.375000 -0.000000    0.00195312  18 t-inv T
 -0.000000 -0.375000 -0.375000    0.00195312  18 t-inv T
 -0.375000 -0.000000 -0.375000    0.00195312  18 t-inv T
 -0.500000 -0.375000 -0.000000    0.00195312  19 t-inv T
 -0.000000 -0.500000 -0.375000    0.00195312  19 t-inv T
 -0.375000 -0.000000 -0.500000    0.00195312  19 t-inv T
 -0.500000 -0.000000 -0.375000    0.00195312  19 t-inv T spinflp
 -0.375000 -0.500000 -0.000000    0.00195312  19 t-inv T spinflp
 -0.000000 -0.375000 -0.500000    0.00195312  19 t-inv T spinflp
 -0.125000 -0.125000 -0.125000    0.00195312  22 t-inv T
 -0.250000 -0.125000 -0.125000    0.00195312  23 t-inv T
 -0.125000 -0.250000 -0.125000    0.00195312  23 t-inv T
 -0.125000 -0.125000 -0.250000    0.00195312  23 t-inv T
 -0.375000 -0.125000 -0.125000    0.00195312  24 t-inv T
 -0.125000 -0.375000 -0.125000    0.00195312  24 t-inv T
 -0.125000 -0.125000 -0.375000    0.00195312  24 t-inv T
 -0.500000 -0.125000 -0.125000    0.00195312  25 t-inv T
 -0.125000 -0.500000 -0.125000    0.00195312  25 t-inv T
 -0.125000 -0.125000 -0.500000    0.00195312  25 t-inv T
  0.375000 -0.125000 -0.125000    0.00195312  26 t-inv T
 -0.125000  0.375000 -0.125000    0.00195312  26 t-inv T
 -0.125000 -0.125000  0.375000    0.00195312  26 t-inv T
  0.250000 -0.125000 -0.125000    0.00195312  27 t-inv T
 -0.125000  0.250000 -0.125000    0.00195312  27 t-inv T
 -0.125000 -0.125000  0.250000    0.00195312  27 t-inv T
  0.125000 -0.125000 -0.125000    0.00195312  28 t-inv T
 -0.125000  0.125000 -0.125000    0.00195312  28 t-inv T
 -0.125000 -0.125000  0.125000    0.00195312  28 t-inv T
 -0.250000 -0.250000 -0.125000    0.00195312  29 t-inv T
 -0.125000 -0.250000 -0.250000    0.00195312  29 t-inv T
 -0.250000 -0.125000 -0.250000    0.00195312  29 t-inv T
 -0.375000 -0.250000 -0.125000    0.00195312  30 t-inv T
 -0.125000 -0.375000 -0.250000    0.00195312  30 t-inv T
 -0.250000 -0.125000 -0.375000    0.00195312  30 t-inv T
 -0.375000 -0.125000 -0.250000    0.00195312  30 t-inv T spinflp
 -0.250000 -0.375000 -0.125000    0.00195312  30 t-inv T spinflp
 -0.125000 -0.250000 -0.375000    0.00195312  30 t-inv T spinflp
 -0.500000 -0.250000 -0.125000    0.00195312  31 t-inv T
 -0.125000 -0.500000 -0.250000    0.00195312  31 t-inv T
 -0.250000 -0.125000 -0.500000    0.00195312  31 t-inv T
 -0.500000 -0.125000 -0.250000    0.00195312  31 t-inv T spinflp
 -0.250000 -0.500000 -0.125000    0.00195312  31 t-inv T spinflp
 -0.125000 -0.250000 -0.500000    0.00195312  31 t-inv T spinflp
  0.375000 -0.250000 -0.125000    0.00195312  32 t-inv T
 -0.125000  0.375000 -0.250000    0.00195312  32 t-inv T
 -0.250000 -0.125000  0.375000    0.00195312  32 t-inv T
  0.375000 -0.125000 -0.250000    0.00195312  32 t-inv T spinflp
 -0.250000  0.375000 -0.125000    0.00195312  32 t-inv T spinflp
 -0.125000 -0.250000  0.375000    0.00195312  32 t-inv T spinflp
  0.250000 -0.250000 -0.125000    0.00195312  33 t-inv T
 -0.125000  0.250000 -0.250000    0.00195312  33 t-inv T
 -0.250000 -0.125000  0.250000    0.00195312  33 t-inv T
  0.250000 -0.125000 -0.250000    0.00195312  33 t-inv T spinflp
 -0.250000  0.250000 -0.125000    0.00195312  33 t-inv T spinflp
 -0.125000 -0.250000  0.250000    0.00195312  33 t-inv T spinflp
  0.125000 -0.250000 -0.125000    0.00195312  34 t-inv T
 -0.125000  0.125000 -0.250000    0.00195312  34 t-inv T
 -0.250000 -0.125000  0.125000    0.00195312  34 t-inv T
  0.125000 -0.125000 -0.250000    0.00195312  34 t-inv T spinflp
 -0.250000  0.125000 -0.125000    0.00195312  34 t-inv T spinflp
 -0.125000 -0.250000  0.125000    0.00195312  34 t-inv T spinflp
 -0.375000 -0.375000 -0.125000    0.00195312  35 t-inv T
 -0.125000 -0.375000 -0.375000    0.00195312  35 t-inv T
 -0.375000 -0.125000 -0.375000    0.00195312  35 t-inv T
 -0.500000 -0.375000 -0.125000    0.00195312  36 t-inv T
 -0.125000 -0.500000 -0.375000    0.00195312  36 t-inv T
 -0.375000 -0.125000 -0.500000    0.00195312  36 t-inv T
 -0.500000 -0.125000 -0.375000    0.00195312  36 t-inv T spinflp
 -0.375000 -0.500000 -0.125000    0.00195312  36 t-inv T spinflp
 -0.125000 -0.375000 -0.500000    0.00195312  36 t-inv T spinflp
  0.375000 -0.375000 -0.125000    0.00195312  37 t-inv T
 -0.125000  0.375000 -0.375000    0.00195312  37 t-inv T
 -0.375000 -0.125000  0.375000    0.00195312  37 t-inv T
  0.375000 -0.125000 -0.375000    0.00195312  37 t-inv T spinflp
 -0.375000  0.375000 -0.125000    0.00195312  37 t-inv T spinflp
 -0.125000 -0.375000  0.375000    0.00195312  37 t-inv T spinflp
  0.250000 -0.375000 -0.125000    0.00195312  38 t-inv T
 -0.125000  0.250000 -0.375000    0.00195312  38 t-inv T
 -0.375000 -0.125000  0.250000    0.00195312  38 t-inv T
  0.250000 -0.125000 -0.375000    0.00195312  38 t-inv T spinflp
 -0.375000  0.250000 -0.125000    0.00195312  38 t-inv T spinflp
 -0.125000 -0.375000  0.250000    0.00195312  38 t-inv T spinflp
  0.125000 -0.375000 -0.125000    0.00195312  39 t-inv T
 -0.125000  0.125000 -0.375000    0.00195312  39 t-inv T
 -0.375000 -0.125000  0.125000    0.00195312  39 t-inv T
  0.125000 -0.125000 -0.375000    0.00195312  39 t-inv T spinflp
 -0.375000  0.125000 -0.125000    0.00195312  39 t-inv T spinflp
 -0.125000 -0.375000  0.125000    0.00195312  39 t-inv T spinflp
 -0.500000 -0.500000 -0.125000    0.00195312  40 t-inv T
 -0.125000 -0.500000 -0.500000    0.00195312  40 t-inv T
 -0.500000 -0.125000 -0.500000    0.00195312  40 t-inv T
  0.375000 -0.500000 -0.125000    0.00195312  41 t-inv T
 -0.125000  0.375000 -0.500000    0.00195312  41 t-inv T
 -0.500000 -0.125000  0.375000    0.00195312  41 t-inv T
  0.375000 -0.125000 -0.500000    0.00195312  41 t-inv T spinflp
 -0.500000  0.375000 -0.125000    0.00195312  41 t-inv T spinflp
 -0.125000 -0.500000  0.375000    0.00195312  41 t-inv T spinflp
  0.250000 -0.500000 -0.125000    0.00195312  42 t-inv T
 -0.125000  0.250000 -0.500000    0.00195312  42 t-inv T
 -0.500000 -0.125000  0.250000    0.00195312  42 t-inv T
  0.250000 -0.125000 -0.500000    0.00195312  42 t-inv T spinflp
 -0.500000  0.250000 -0.125000    0.00195312  42 t-inv T spinflp
 -0.125000 -0.500000  0.250000    0.00195312  42 t-inv T spinflp
  0.375000  0.375000 -0.125000    0.00195312  44 t-inv T
 -0.125000  0.375000  0.375000    0.00195312  44 t-inv T
  0.375000 -0.125000  0.375000    0.00195312  44 t-inv T
  0.250000  0.375000 -0.125000    0.00195312  45 t-inv T
 -0.125000  0.250000  0.375000    0.00195312  45 t-inv T
  0.375000 -0.125000  0.250000    0.00195312  45 t-inv T
  0.250000 -0.125000  0.375000    0.00195312  45 t-inv T spinflp
  0.375000  0.250000 -0.125000    0.00195312  45 t-inv T spinflp
 -0.125000  0.375000  0.250000    0.00195312  45 t-inv T spinflp
  0.250000  0.250000 -0.125000    0.00195312  46 t-inv T
 -0.125000  0.250000  0.250000    0.00195312  46 t-inv T
  0.250000 -0.125000  0.250000    0.00195312  46 t-inv T
 -0.250000 -0.250000 -0.250000    0.00195312  47 t-inv T
 -0.375000 -0.250000 -0.250000    0.00195312  48 t-inv T
 -0.250000 -0.375000 -0.250000    0.00195312  48 t-inv T
 -0.250000 -0.250000 -0.375000    0.00195312  48 t-inv T
 -0.500000 -0.250000 -0.250000    0.00195312  49 t-inv T
 -0.250000 -0.500000 -0.250000    0.00195312  49 t-inv T
 -0.250000 -0.250000 -0.500000    0.00195312  49 t-inv T
  0.375000 -0.250000 -0.250000    0.00195312  50 t-inv T
 -0.250000  0.375000 -0.250000    0.00195312  50 t-inv T
 -0.250000 -0.250000  0.375000    0.00195312  50 t-inv T
  0.250000 -0.250000 -0.250000    0.00195312  51 t-inv T
 -0.250000  0.250000 -0.250000    0.00195312  51 t-inv T
 -0.250000 -0.250000  0.250000    0.00195312  51 t-inv T
 -0.375000 -0.375000 -0.250000    0.00195312  52 t-inv T
 -0.250000 -0.375000 -0.375000    0.00195312  52 t-inv T
 -0.375000 -0.250000 -0.375000    0.00195312  52 t-inv T
 -0.500000 -0.375000 -0.250000    0.00195312  53 t-inv T
 -0.250000 -0.500000 -0.375000    0.00195312  53 t-inv T
 -0.375000 -0.250000 -0.500000    0.00195312  53 t-inv T
 -0.500000 -0.250000 -0.375000    0.00195312  53 t-inv T spinflp
 -0.375000 -0.500000 -0.250000    0.00195312  53 t-inv T spinflp
 -0.250000 -0.375000 -0.500000    0.00195312  53 t-inv T spinflp
  0.375000 -0.375000 -0.250000    0.00195312  54 t-inv T
 -0.250000  0.375000 -0.375000    0.00195312  54 t-inv T
 -0.375000 -0.250000  0.375000    0.00195312  54 t-inv T
  0.375000 -0.250000 -0.375000    0.00195312  54 t-inv T spinflp
 -0.375000  0.375000 -0.250000    0.00195312  54 t-inv T spinflp
 -0.250000 -0.375000  0.375000    0.00195312  54 t-inv T spinflp
  0.250000 -0.375000 -0.250000    0.00195312  55 t-inv T
 -0.250000  0.250000 -0.375000    0.00195312  55 t-inv T
 -0.375000 -0.250000  0.250000    0.00195312  55 t-inv T
  0.250000 -0.250000 -0.375000    0.00195312  55 t-inv T spinflp
 -0.375000  0.250000 -0.250000    0.00195312  55 t-inv T spinflp
 -0.250000 -0.375000  0.250000    0.00195312  55 t-inv T spinflp
 -0.500000 -0.500000 -0.250000    0.00195312  56 t-inv T
 -0.250000 -0.500000 -0.500000    0.00195312  56 t-inv T
 -0.500000 -0.250000 -0.500000    0.00195312  56 t-inv T
  0.375000 -0.500000 -0.250000    0.00195312  57 t-inv T
 -0.250000  0.375000 -0.500000    0.00195312  57 t-inv T
 -0.500000 -0.250000  0.375000    0.00195312  57 t-inv T
  0.375000 -0.250000 -0.500000    0.00195312  57 t-inv T spinflp
 -0.500000  0.375000 -0.250000    0.00195312  57 t-inv T spinflp
 -0.250000 -0.500000  0.375000    0.00195312  57 t-inv T spinflp
  0.375000  0.375000 -0.250000    0.00195312  59 t-inv T
 -0.250000  0.375000  0.375000    0.00195312  59 t-inv T
  0.375000 -0.250000  0.375000    0.00195312  59 t-inv T
 -0.375000 -0.375000 -0.375000    0.00195312  60 t-inv T
 -0.500000 -0.375000 -0.375000    0.00195312  61 t-inv T
 -0.375000 -0.500000 -0.375000    0.00195312  61 t-inv T
 -0.375000 -0.375000 -0.500000    0.00195312  61 t-inv T
  0.375000 -0.375000 -0.375000    0.00195312  62 t-inv T
 -0.375000  0.375000 -0.375000    0.00195312  62 t-inv T
 -0.375000 -0.375000  0.375000    0.00195312  62 t-inv T
 -0.500000 -0.500000 -0.375000    0.00195312  63 t-inv T
 -0.375000 -0.500000 -0.500000    0.00195312  63 t-inv T
 -0.500000 -0.375000 -0.500000    0.00195312  63 t-inv T


--------------------------------------------------------------------------------------------------------




 Dimension of arrays:
   k-points           NKPTS =     65   k-points in BZ     NKDIM =     65   number of bands    NBANDS=     56
   number of dos      NEDOS =    301   number of ions     NIONS =     10
   non local maximal  LDIM  =      6   non local SUM 2l+1 LMDIM =     18
   total plane-waves  NPLWV =  32768
   max r-space proj   IRMAX =      1   max aug-charges    IRDMAX=  12489
   dimension x,y,z NGX =    32 NGY =   32 NGZ =   32
   dimension x,y,z NGXF=    64 NGYF=   64 NGZF=   64
   support grid    NGXF=    64 NGYF=   64 NGZF=   64
   ions per type =               2   6   2
 NGX,Y,Z   is equivalent  to a cutoff of   9.66,  9.66,  9.66 a.u.
 NGXF,Y,Z  is equivalent  to a cutoff of  19.32, 19.32, 19.32 a.u.


 I would recommend the setting:
   dimension x,y,z NGX =    31 NGY =   31 NGZ =   31
 SYSTEM =  unknown system                          
 POSCAR =  Reproduced from the Neaton et al paper  

 Startparameter for this run:
   NWRITE =      2    write-flag & timer
   PREC   = normal    normal or accurate (medium, high low for compatibility)
   ISTART =      0    job   : 0-new  1-cont  2-samecut
   ICHARG =      1    charge: 1-file 2-atom 10-const
   ISPIN  =      2    spin polarized calculation?
   LNONCOLLINEAR =      F non collinear calculations
   LSORBIT =      F    spin-orbit coupling
   INIWAV =      1    electr: 0-lowe 1-rand  2-diag
   LASPH  =      T    aspherical Exc in radial PAW
   METAGGA=      F    non-selfconsistent MetaGGA calc.

 Electronic Relaxation 1
   ENCUT  =  520.0 eV  38.22 Ry    6.18 a.u.  10.24 10.24 10.24*2*pi/ulx,y,z
   ENINI  =  520.0     initial cutoff
   ENAUG  =  605.4 eV  augmentation charge cutoff
   NELM   =     60;   NELMIN=  2; NELMDL= -5     # of ELM steps 
   EDIFF  = 0.1E-06   stopping-criterion for ELM
   LREAL  =      F    real-space projection
   NLSPLINE    = F    spline interpolate recip. space projectors
   LCOMPAT=      F    compatible to vasp.4.4
   GGA_COMPAT  = T    GGA compatible to vasp.4.4-vasp.4.6
   LMAXPAW     = -100 max onsite density
   LMAXMIX     =    6 max onsite mixed and CHGCAR
   VOSKOWN=      0    Vosko Wilk Nusair interpolation
   ROPT   =    0.00000   0.00000   0.00000
 Ionic relaxation
   EDIFFG = 0.1E-05   stopping-criterion for IOM
   NSW    =      0    number of steps for IOM
   NBLOCK =      1;   KBLOCK =      1    inner block; outer block 
   IBRION =     -1    ionic relax: 0-MD 1-quasi-New 2-CG
   NFREE  =      0    steps in history (QN), initial steepest desc. (CG)
   ISIF   =      2    stress and relaxation
   IWAVPR =     10    prediction:  0-non 1-charg 2-wave 3-comb
   ISYM   =      2    0-nonsym 1-usesym 2-fastsym
   LCORR  =      T    Harris-Foulkes like correction to forces

   POTIM  = 0.5000    time-step for ionic-motion
   TEIN   =    0.0    initial temperature
   TEBEG  =    0.0;   TEEND  =   0.0 temperature during run
   SMASS  =  -3.00    Nose mass-parameter (am)
   estimated Nose-frequenzy (Omega)   =  0.10E-29 period in steps =****** mass=  -0.693E-27a.u.
   SCALEE = 1.0000    scale energy and forces
   NPACO  =    256;   APACO  = 16.0  distance and # of slots for P.C.
   PSTRESS=    0.0 pullay stress

  Mass of Ions in am
   POMASS = 208.98 16.00 55.85
  Ionic Valenz
   ZVAL   =  15.00  6.00 14.00
  Atomic Wigner-Seitz radii
   RWIGS  =  -1.00 -1.00 -1.00
  virtual crystal weights 
   VCA    =   1.00  1.00  1.00
   NELECT =      94.0000    total number of electrons
   NUPDOWN=      -1.0000    fix difference up-down

 DOS related values:
   EMIN   =  10.00;   EMAX   =-10.00  energy-range for DOS
   EFERMI =   0.00
   ISMEAR =     0;   SIGMA  =   0.05  broadening in eV -4-tet -1-fermi 0-gaus

 Electronic relaxation 2 (details)
   IALGO  =     38    algorithm
   LDIAG  =      T    sub-space diagonalisation (order eigenvalues)
   LSUBROT=      F    optimize rotation matrix (better conditioning)
   TURBO    =      0    0=normal 1=particle mesh
   IRESTART =      0    0=no restart 2=restart with 2 vectors
   NREBOOT  =      0    no. of reboots
   NMIN     =      0    reboot dimension
   EREF     =   0.00    reference energy to select bands
   IMIX   =      4    mixing-type and parameters
     AMIX     =   0.40;   BMIX     =  1.00
     AMIX_MAG =   1.60;   BMIX_MAG =  1.00
     AMIN     =   0.10
     WC   =   100.;   INIMIX=   1;  MIXPRE=   1;  MAXMIX= -45

 Intra band minimization:
   WEIMIN = 0.0000     energy-eigenvalue tresh-hold
   EBREAK =  0.45E-09  absolut break condition
   DEPER  =   0.30     relativ break condition  

   TIME   =   0.40     timestep for ELM

  volume/ion in A,a.u.               =      11.78        79.51
  Fermi-wavevector in a.u.,A,eV,Ry     =   1.518369  2.869301 31.367468  2.305444
  Thomas-Fermi vector in A             =   2.627499
 
 Write flags
   LWAVE  =      F    write WAVECAR
   LCHARG =      T    write CHGCAR
   LVTOT  =      F    write LOCPOT, total local potential
   LVHAR  =      F    write LOCPOT, Hartree potential only
   LELF   =      F    write electronic localiz. function (ELF)
   LORBIT =     11    0 simple, 1 ext, 2 COOP (PROOUT)


 Dipole corrections
   LMONO  =      F    monopole corrections only (constant potential shift)
   LDIPOL =      F    correct potential (dipole corrections)
   IDIPOL =      0    1-x, 2-y, 3-z, 4-all directions 
   EPSILON=  1.0000000 bulk dielectric constant

 LDA+U is selected, type is set to LDAUTYPE =  2
   angular momentum for each species LDAUL =    -1   -1    2
   U (eV)           for each species LDAUU =   0.0  0.0  2.0
   J (eV)           for each species LDAUJ =   0.0  0.0  0.0
 Exchange correlation treatment:
   GGA     =    --    GGA type
   LEXCH   =     2    internal setting for exchange type
   VOSKOWN=      0    Vosko Wilk Nusair interpolation
   LHFCALC =     F    Hartree Fock is set to
   LHFONE  =     F    Hartree Fock one center treatment
   AEXX    =    0.0000 exact exchange contribution

 Linear response parameters
   LEPSILON=     F    determine dielectric tensor
   LRPA    =     F    only Hartree local field effects (RPA)
   LNABLA  =     F    use nabla operator in PAW spheres
   LVEL    =     F    velocity operator in full k-point grid
   LINTERFAST=   F  fast interpolation
   KINTER  =     0    interpolate to denser k-point grid
   CSHIFT  =0.1000    complex shift for real part using Kramers Kronig
   OMEGAMAX=  -1.0    maximum frequency
   DEG_THRESHOLD= 0.2000000E-02 threshold for treating states as degnerate
   RTIME   =    0.100 relaxation time in fs

 Orbital magnetization related:
   ORBITALMAG=     F  switch on orbital magnetization
   LCHIMAG   =     F  perturbation theory with respect to B field
   DQ        =  0.001000  dq finite difference perturbation B field

 PEAD related settings:
   LPEAD      =     T    switch on PEAD
   IPEAD      =     4    finite difference order for dpsi/dk
   LCALCPOL   =     T    calculate macroscopic polarization
   LCALCEPS   =     F    calculate dielectric tensor
   EFIELD_PEAD=    0.0000    0.0000    0.0000
   SKIP_EDOTP =     F
   LRPA       =     F
   SKIP_SCF   =     F


--------------------------------------------------------------------------------------------------------


 Static calculation
 charge density and potential will be updated during run
 spin polarized calculation
 Variant of blocked Davidson
 Davidson routine will perform the subspace rotation
 perform sub-space diagonalisation
    after iterative eigenvector-optimisation
 modified Broyden-mixing scheme, WC =      100.0
 initial mixing is a Kerker type mixing with AMIX =  0.4000 and BMIX =      1.0000
 Hartree-type preconditioning will be used
 using additional bands            9
 reciprocal scheme for non local part
 use partial core corrections
 calculate Harris-corrections to forces 
   (improved forces if not selfconsistent)
 use of overlap-Matrix (Vanderbilt PP)
 Gauss-broadening in eV      SIGMA  =   0.05


--------------------------------------------------------------------------------------------------------


  energy-cutoff  :      520.00
  volume of cell :      117.82
      direct lattice vectors                 reciprocal lattice vectors
     5.506408058  0.003758891  0.002657737     0.181714183 -0.105079080 -0.074296517
     2.757291108  4.766328731  0.002657737    -0.000107432  0.209908661 -0.074296517
     2.757291108  1.591602008  4.492738551    -0.000107432 -0.000062013  0.222669294

  length of vectors
     5.506409982  5.506409982  5.506409982     0.222669329  0.222669329  0.222669329


 
 k-points in units of 2pi/SCALE and weight: Gamma centred mesh                      
   0.00000000  0.00000000  0.00000000       0.002
   0.02271427 -0.01313489 -0.00928706       0.012
   0.04542855 -0.02626977 -0.01857413       0.012
   0.06814282 -0.03940466 -0.02786119       0.012
   0.09085709 -0.05253954 -0.03714826       0.006
   0.02270084  0.01310370 -0.01857413       0.012
   0.04541512 -0.00003119 -0.02786119       0.023
   0.06812939 -0.01316607 -0.03714826       0.023
   0.09084366 -0.02630096 -0.04643532       0.023
  -0.06815625  0.06564324  0.01857413       0.023
  -0.04544197  0.05250835  0.00928706       0.023
  -0.02272770  0.03937347 -0.00000000       0.012
   0.04540169  0.02620740 -0.03714826       0.012
   0.06811596  0.01307251 -0.04643532       0.023
   0.09083023 -0.00006238 -0.05572239       0.023
  -0.06816968  0.09188182  0.00928706       0.023
  -0.04545540  0.07874694 -0.00000000       0.012
   0.06810253  0.03931109 -0.05572239       0.012
   0.09081680  0.02617621 -0.06500945       0.023
  -0.06818311  0.11812040 -0.00000000       0.012
   0.09080338  0.05241479 -0.07429652       0.006
   0.02268741  0.01309595  0.00925953       0.004
   0.04540169 -0.00003894 -0.00002753       0.012
   0.06811596 -0.01317382 -0.00931460       0.012
   0.09083023 -0.02630871 -0.01860166       0.012
  -0.06816968  0.06563549  0.04640779       0.012
  -0.04545540  0.05250060  0.03712073       0.012
  -0.02274113  0.03936572  0.02783366       0.012
   0.04538826  0.02619964 -0.00931460       0.012
   0.06810253  0.01306476 -0.01860166       0.023
   0.09081680 -0.00007013 -0.02788873       0.023
  -0.06818311  0.09187407  0.03712073       0.023
  -0.04546883  0.07873918  0.02783366       0.023
  -0.02275456  0.06560430  0.01854660       0.023
   0.06808910  0.03930334 -0.02788873       0.012
   0.09080338  0.02616846 -0.03717579       0.023
  -0.06819653  0.11811265  0.02783366       0.023
  -0.04548226  0.10497777  0.01854660       0.023
  -0.02276799  0.09184288  0.00925953       0.023
   0.09078995  0.05240704 -0.04646286       0.012
  -0.06820996  0.14435123  0.01854660       0.023
  -0.04549569  0.13121635  0.00925953       0.023
  -0.02278142  0.11808146 -0.00002753       0.012
  -0.06811596 -0.03931884  0.08355605       0.012
  -0.04540169 -0.05245373  0.07426898       0.023
  -0.04541512 -0.02621515  0.06498192       0.012
   0.04537483  0.02619189  0.01851907       0.004
   0.06808910  0.01305701  0.00923200       0.012
   0.09080338 -0.00007788 -0.00005506       0.012
  -0.06819653  0.09186632  0.06495439       0.012
  -0.04548226  0.07873143  0.05566732       0.012
   0.06807567  0.03929559 -0.00005506       0.012
   0.09078995  0.02616070 -0.00934213       0.023
  -0.06820996  0.11810490  0.05566732       0.023
  -0.04549569  0.10497001  0.04638026       0.023
   0.09077652  0.05239929 -0.01862919       0.012
  -0.06822339  0.14434348  0.04638026       0.023
  -0.04550912  0.13120860  0.03709319       0.012
  -0.06812939 -0.03932660  0.11138971       0.012
   0.06806224  0.03928784  0.02777860       0.004
   0.09077652  0.02615295  0.01849153       0.012
  -0.06822339  0.11809715  0.08350099       0.012
   0.09076309  0.05239154  0.00920447       0.012
  -0.06823682  0.14433573  0.07421392       0.012
   0.09074966  0.05238378  0.03703813       0.002
 
 k-points in reciprocal lattice and weights: Gamma centred mesh                      
   0.00000000  0.00000000  0.00000000       0.002
   0.12500000 -0.00000000  0.00000000       0.012
   0.25000000 -0.00000000  0.00000000       0.012
   0.37500000  0.00000000  0.00000000       0.012
   0.50000000 -0.00000000  0.00000000       0.006
   0.12500000  0.12500000  0.00000000       0.012
   0.25000000  0.12500000  0.00000000       0.023
   0.37500000  0.12500000  0.00000000       0.023
   0.50000000  0.12500000  0.00000000       0.023
  -0.37500000  0.12500000 -0.00000000       0.023
  -0.25000000  0.12500000 -0.00000000       0.023
  -0.12500000  0.12500000 -0.00000000       0.012
   0.25000000  0.25000000  0.00000000       0.012
   0.37500000  0.25000000 -0.00000000       0.023
   0.50000000  0.25000000  0.00000000       0.023
  -0.37500000  0.25000000 -0.00000000       0.023
  -0.25000000  0.25000000 -0.00000000       0.012
   0.37500000  0.37500000  0.00000000       0.012
   0.50000000  0.37500000  0.00000000       0.023
  -0.37500000  0.37500000 -0.00000000       0.012
   0.50000000  0.50000000  0.00000000       0.006
   0.12500000  0.12500000  0.12500000       0.004
   0.25000000  0.12500000  0.12500000       0.012
   0.37500000  0.12500000  0.12500000       0.012
   0.50000000  0.12500000  0.12500000       0.012
  -0.37500000  0.12500000  0.12500000       0.012
  -0.25000000  0.12500000  0.12500000       0.012
  -0.12500000  0.12500000  0.12500000       0.012
   0.25000000  0.25000000  0.12500000       0.012
   0.37500000  0.25000000  0.12500000       0.023
   0.50000000  0.25000000  0.12500000       0.023
  -0.37500000  0.25000000  0.12500000       0.023
  -0.25000000  0.25000000  0.12500000       0.023
  -0.12500000  0.25000000  0.12500000       0.023
   0.37500000  0.37500000  0.12500000       0.012
   0.50000000  0.37500000  0.12500000       0.023
  -0.37500000  0.37500000  0.12500000       0.023
  -0.25000000  0.37500000  0.12500000       0.023
  -0.12500000  0.37500000  0.12500000       0.023
   0.50000000  0.50000000  0.12500000       0.012
  -0.37500000  0.50000000  0.12500000       0.023
  -0.25000000  0.50000000  0.12500000       0.023
  -0.12500000  0.50000000  0.12500000       0.012
  -0.37500000 -0.37500000  0.12500000       0.012
  -0.25000000 -0.37500000  0.12500000       0.023
  -0.25000000 -0.25000000  0.12500000       0.012
   0.25000000  0.25000000  0.25000000       0.004
   0.37500000  0.25000000  0.25000000       0.012
   0.50000000  0.25000000  0.25000000       0.012
  -0.37500000  0.25000000  0.25000000       0.012
  -0.25000000  0.25000000  0.25000000       0.012
   0.37500000  0.37500000  0.25000000       0.012
   0.50000000  0.37500000  0.25000000       0.023
  -0.37500000  0.37500000  0.25000000       0.023
  -0.25000000  0.37500000  0.25000000       0.023
   0.50000000  0.50000000  0.25000000       0.012
  -0.37500000  0.50000000  0.25000000       0.023
  -0.25000000  0.50000000  0.25000000       0.012
  -0.37500000 -0.37500000  0.25000000       0.012
   0.37500000  0.37500000  0.37500000       0.004
   0.50000000  0.37500000  0.37500000       0.012
  -0.37500000  0.37500000  0.37500000       0.012
   0.50000000  0.50000000  0.37500000       0.012
  -0.37500000  0.50000000  0.37500000       0.012
   0.50000000  0.50000000  0.50000000       0.002
 
 position of ions in fractional coordinates (direct lattice) 
   0.00043136  0.00043136  0.00043136
   0.50043136  0.50043136  0.50043136
   0.54068483  0.94236405  0.39650210
   0.39650210  0.54068483  0.94236405
   0.94236405  0.39650210  0.54068483
   0.44236405  0.04068483  0.89650213
   0.04068483  0.89650213  0.44236405
   0.89650213  0.44236405  0.04068483
   0.22801763  0.22801763  0.22801763
   0.72801761  0.72801761  0.72801761
 
 position of ions in cartesian coordinates  (Angst):
   0.00475401  0.00274418  0.00194028
   5.51524915  3.18358899  2.25096729
   6.66887504  5.12472274  1.78532183
   6.27249985  4.07844057  4.23628608
   7.77313818  2.75395667  2.43271395
   5.01993423  1.62245468  4.02903350
   3.91567110  4.97724430  1.98991680
   6.26841294  2.17657638  0.18634467
   2.51298004  1.45057737  1.02563560
   8.02347501  4.63142209  3.27466255
 


--------------------------------------------------------------------------------------------------------


 k-point  1 :   0.0000 0.0000 0.0000  plane waves:    3143
 k-point  2 :   0.1250-0.0000 0.0000  plane waves:    3172
 k-point  3 :   0.2500-0.0000 0.0000  plane waves:    3174
 k-point  4 :   0.3750 0.0000 0.0000  plane waves:    3169
 k-point  5 :   0.5000-0.0000 0.0000  plane waves:    3178
 k-point  6 :   0.1250 0.1250 0.0000  plane waves:    3183
 k-point  7 :   0.2500 0.1250 0.0000  plane waves:    3177
 k-point  8 :   0.3750 0.1250 0.0000  plane waves:    3160
 k-point  9 :   0.5000 0.1250 0.0000  plane waves:    3170
 k-point 10 :  -0.3750 0.1250-0.0000  plane waves:    3173
 k-point 11 :  -0.2500 0.1250-0.0000  plane waves:    3170
 k-point 12 :  -0.1250 0.1250-0.0000  plane waves:    3170
 k-point 13 :   0.2500 0.2500 0.0000  plane waves:    3178
 k-point 14 :   0.3750 0.2500-0.0000  plane waves:    3170
 k-point 15 :   0.5000 0.2500 0.0000  plane waves:    3173
 k-point 16 :  -0.3750 0.2500-0.0000  plane waves:    3176
 k-point 17 :  -0.2500 0.2500-0.0000  plane waves:    3154
 k-point 18 :   0.3750 0.3750 0.0000  plane waves:    3182
 k-point 19 :   0.5000 0.3750 0.0000  plane waves:    3182
 k-point 20 :  -0.3750 0.3750-0.0000  plane waves:    3198
 k-point 21 :   0.5000 0.5000 0.0000  plane waves:    3218
 k-point 22 :   0.1250 0.1250 0.1250  plane waves:    3173
 k-point 23 :   0.2500 0.1250 0.1250  plane waves:    3176
 k-point 24 :   0.3750 0.1250 0.1250  plane waves:    3164
 k-point 25 :   0.5000 0.1250 0.1250  plane waves:    3176
 k-point 26 :  -0.3750 0.1250 0.1250  plane waves:    3170
 k-point 27 :  -0.2500 0.1250 0.1250  plane waves:    3163
 k-point 28 :  -0.1250 0.1250 0.1250  plane waves:    3173
 k-point 29 :   0.2500 0.2500 0.1250  plane waves:    3171
 k-point 30 :   0.3750 0.2500 0.1250  plane waves:    3170
 k-point 31 :   0.5000 0.2500 0.1250  plane waves:    3168
 k-point 32 :  -0.3750 0.2500 0.1250  plane waves:    3171
 k-point 33 :  -0.2500 0.2500 0.1250  plane waves:    3171
 k-point 34 :  -0.1250 0.2500 0.1250  plane waves:    3172
 k-point 35 :   0.3750 0.3750 0.1250  plane waves:    3168
 k-point 36 :   0.5000 0.3750 0.1250  plane waves:    3166
 k-point 37 :  -0.3750 0.3750 0.1250  plane waves:    3175
 k-point 38 :  -0.2500 0.3750 0.1250  plane waves:    3171
 k-point 39 :  -0.1250 0.3750 0.1250  plane waves:    3173
 k-point 40 :   0.5000 0.5000 0.1250  plane waves:    3179
 k-point 41 :  -0.3750 0.5000 0.1250  plane waves:    3181
 k-point 42 :  -0.2500 0.5000 0.1250  plane waves:    3173
 k-point 43 :  -0.1250 0.5000 0.1250  plane waves:    3170
 k-point 44 :  -0.3750-0.3750 0.1250  plane waves:    3179
 k-point 45 :  -0.2500-0.3750 0.1250  plane waves:    3170
 k-point 46 :  -0.2500-0.2500 0.1250  plane waves:    3167
 k-point 47 :   0.2500 0.2500 0.2500  plane waves:    3170
 k-point 48 :   0.3750 0.2500 0.2500  plane waves:    3166
 k-point 49 :   0.5000 0.2500 0.2500  plane waves:    3153
 k-point 50 :  -0.3750 0.2500 0.2500  plane waves:    3176
 k-point 51 :  -0.2500 0.2500 0.2500  plane waves:    3172
 k-point 52 :   0.3750 0.3750 0.2500  plane waves:    3162
 k-point 53 :   0.5000 0.3750 0.2500  plane waves:    3171
 k-point 54 :  -0.3750 0.3750 0.2500  plane waves:    3166
 k-point 55 :  -0.2500 0.3750 0.2500  plane waves:    3172
 k-point 56 :   0.5000 0.5000 0.2500  plane waves:    3176
 k-point 57 :  -0.3750 0.5000 0.2500  plane waves:    3171
 k-point 58 :  -0.2500 0.5000 0.2500  plane waves:    3174
 k-point 59 :  -0.3750-0.3750 0.2500  plane waves:    3194
 k-point 60 :   0.3750 0.3750 0.3750  plane waves:    3163
 k-point 61 :   0.5000 0.3750 0.3750  plane waves:    3172
 k-point 62 :  -0.3750 0.3750 0.3750  plane waves:    3174
 k-point 63 :   0.5000 0.5000 0.3750  plane waves:    3168
 k-point 64 :  -0.3750 0.5000 0.3750  plane waves:    3170
 k-point 65 :   0.5000 0.5000 0.5000  plane waves:    3178

 maximum and minimum number of plane-waves per node :      3218     3143

 maximum number of plane-waves:      3218
 maximum index in each direction: 
   IXMAX=   10   IYMAX=   10   IZMAX=   10
   IXMIN=  -10   IYMIN=  -10   IZMIN=  -10

 WARNING: aliasing errors must be expected set NGX to  42 to avoid them
 WARNING: aliasing errors must be expected set NGY to  42 to avoid them
 WARNING: aliasing errors must be expected set NGZ to  42 to avoid them
 aliasing errors are usually negligible using standard VASP settings
 and one can safely disregard these warnings

 serial   3D FFT for wavefunctions
 parallel 3D FFT for charge:
    minimum data exchange during FFTs selected (reduces bandwidth)


 total amount of memory used by VASP on root node   229472. kBytes
========================================================================

   base      :      30000. kBytes
   nonl-proj :      90932. kBytes
   fftplans  :       2401. kBytes
   grid      :       8568. kBytes
   one-center:        311. kBytes
   wavefun   :      97260. kBytes
 
     INWAV:  cpu time    0.0001: real time    0.0005
 Broyden mixing: mesh for mixing (old mesh)
   NGX = 21   NGY = 21   NGZ = 21
  (NGX  = 64   NGY  = 64   NGZ  = 64)
  gives a total of   9261 points

 initial charge density was supplied:
 number of electron      93.9999930 magnetization       0.0000000
 keeping initial charge density in first step


--------------------------------------------------------------------------------------------------------


 Maximum index for augmentation-charges         2989 (set IRDMAX)


--------------------------------------------------------------------------------------------------------


 First call to EWALD:  gamma=   0.362
 Maximum number of real-space cells 3x 3x 3
 Maximum number of reciprocal cells 3x 3x 3

 FEWALD executed in parallel
    FEWALD:  cpu time    0.0016: real time    0.0016


----------------------------------------- Iteration    1(   1)  ---------------------------------------


    POTLOK:  cpu time    0.0200: real time    0.0202
    SETDIJ:  cpu time    0.9220: real time    0.9220
atom =   9  type =  3  l = 2
 
 onsite density matrix
 
spin component  1
 
  0.9674 -0.0023  0.0029 -0.0117 -0.0031
 -0.0023  0.9753  0.0051  0.0017 -0.0081
  0.0029  0.0051  0.9582 -0.0023 -0.0029
 -0.0117  0.0017 -0.0023  0.9668  0.0025
 -0.0031 -0.0081 -0.0029  0.0025  0.9605
 
spin component  2
 
  0.2237 -0.0155  0.0196 -0.0662 -0.0195
 -0.0155  0.2664  0.0381  0.0149 -0.0410
  0.0196  0.0381  0.1603 -0.0221 -0.0247
 -0.0662  0.0149 -0.0221  0.2004  0.0227
 -0.0195 -0.0410 -0.0247  0.0227  0.1632
 
 occupancies and eigenvectors
 
  o =  0.1370  v =  0.0000  0.0000  0.0000  0.0000  0.0000 -0.1967  0.3105 -0.1407 -0.5819  0.7117      0.0000  0.0000  0.0000  0.0000  0.0000  0.0000  0.0000  0.0000  0.0000  0.0000
  o =  0.1370  v =  0.0000  0.0000  0.0000  0.0000  0.0000  0.0618 -0.1333  0.8549  0.2367  0.4377      0.0000  0.0000  0.0000  0.0000  0.0000  0.0000  0.0000  0.0000  0.0000  0.0000
  o =  0.1495  v =  0.0000  0.0000  0.0000  0.0000  0.0000  0.6666  0.2721 -0.3334  0.4713  0.3850      0.0000  0.0000  0.0000  0.0000  0.0000  0.0000  0.0000  0.0000  0.0000  0.0000
  o =  0.2952  v =  0.0000  0.0000  0.0000  0.0000  0.0000 -0.5347 -0.4736 -0.3572  0.4716  0.3738      0.0000  0.0000  0.0000  0.0000  0.0000  0.0000  0.0000  0.0000  0.0000  0.0000
  o =  0.2952  v =  0.0000  0.0000  0.0000  0.0000  0.0000  0.4766 -0.7665 -0.1033 -0.4010  0.1179      0.0000  0.0000  0.0000  0.0000  0.0000  0.0000  0.0000  0.0000  0.0000  0.0000
  o =  0.9549  v = -0.6667 -0.2720  0.3334 -0.4714 -0.3850  0.0000  0.0000  0.0000  0.0000  0.0000      0.0000  0.0000  0.0000  0.0000  0.0000  0.0000  0.0000  0.0000  0.0000  0.0000
  o =  0.9562  v =  0.2438 -0.3509  0.0860  0.5190 -0.7353  0.0000  0.0000  0.0000  0.0000  0.0000      0.0000  0.0000  0.0000  0.0000  0.0000  0.0000  0.0000  0.0000  0.0000  0.0000
  o =  0.9562  v =  0.1056 -0.0946  0.8907  0.2440  0.3565  0.0000  0.0000  0.0000  0.0000  0.0000      0.0000  0.0000  0.0000  0.0000  0.0000  0.0000  0.0000  0.0000  0.0000  0.0000
  o =  0.9804  v =  0.4612  0.5795  0.2923 -0.4485 -0.4060  0.0000  0.0000  0.0000  0.0000  0.0000      0.0000  0.0000  0.0000  0.0000  0.0000  0.0000  0.0000  0.0000  0.0000  0.0000
  o =  0.9804  v = -0.5218  0.6768  0.0528  0.4977 -0.1385  0.0000  0.0000  0.0000  0.0000  0.0000      0.0000  0.0000  0.0000  0.0000  0.0000  0.0000  0.0000  0.0000  0.0000  0.0000
atom =  10  type =  3  l = 2
 
 onsite density matrix
 
[...]
     47       7.0068      1.00000
     48       8.4969      0.00000
     49       8.6969      0.00000
     50       8.7341      0.00000
     51       9.9441      0.00000
     52      10.1549      0.00000
     53      10.4909      0.00000
     54      10.7317      0.00000
     55      11.8810      0.00000
     56      11.9399      0.00000

 k-point    65 :       0.5000    0.5000    0.5000
  band No.  band energies     occupation 
      1     -48.4008      1.00000
      2     -48.3612      1.00000
      3     -48.3584      1.00000
      4     -44.3502      1.00000
      5     -44.3015      1.00000
      6     -44.2990      1.00000
      7     -15.3327      1.00000
      8     -15.3282      1.00000
      9     -15.2948      1.00000
     10     -15.2901      1.00000
     11     -15.2812      1.00000
     12     -15.2342      1.00000
     13     -15.2289      1.00000
     14     -15.2246      1.00000
     15     -15.2013      1.00000
     16     -15.1959      1.00000
     17     -11.2328      1.00000
     18     -11.1401      1.00000
     19      -9.9624      1.00000
     20      -9.9548      1.00000
     21      -9.8287      1.00000
     22      -9.8212      1.00000
     23      -2.9045      1.00000
     24      -2.8535      1.00000
     25       1.0156      1.00000
     26       1.0171      1.00000
     27       1.5144      1.00000
     28       1.5638      1.00000
     29       1.5650      1.00000
     30       1.8210      1.00000
     31       2.0313      1.00000
     32       2.0323      1.00000
     33       3.0733      1.00000
     34       3.2277      1.00000
     35       3.2289      1.00000
     36       3.9986      1.00000
     37       4.1564      1.00000
     38       4.1596      1.00000
     39       4.3645      1.00000
     40       4.6953      1.00000
     41       4.7003      1.00000
     42       5.0003      1.00000
     43       5.0058      1.00000
     44       6.1572      1.00000
     45       6.7244      1.00000
     46       7.0247      1.00000
     47       7.0270      1.00000
     48       8.4213      0.00000
     49       8.6783      0.00000
     50       8.6813      0.00000
     51      10.1320      0.00000
     52      10.1346      0.00000
     53      10.2556      0.00000
     54      10.5545      0.00000
     55      12.4519      0.00000
     56      12.4599      0.00000


--------------------------------------------------------------------------------------------------------


 soft charge-density along one line, spin component           1
         0         1         2         3         4         5         6         7         8         9
 total charge-density along one line
 
 soft charge-density along one line, spin component           2
         0         1         2         3         4         5         6         7         8         9
 total charge-density along one line
 
 pseudopotential strength for first ion, spin component:           1
-16.700   0.005  -0.005   0.003  -0.002   3.331  -0.002   0.002
  0.005 -16.705  -0.003   0.000  -0.003  -0.002   3.333   0.002
 -0.005  -0.003 -16.694   0.010   0.004   0.002   0.002   3.327
  0.003   0.000   0.010 -16.691  -0.002  -0.001   0.000  -0.005
 -0.002  -0.003   0.004  -0.002 -16.684   0.001   0.002  -0.002
  3.331  -0.002   0.002  -0.001   0.001   6.188   0.001  -0.001
 -0.002   3.333   0.002   0.000   0.002   0.001   6.187  -0.000
  0.002   0.002   3.327  -0.005  -0.002  -0.001  -0.000   6.188
 -0.001   0.000  -0.005   3.326   0.001   0.001   0.001   0.002
  0.001   0.002  -0.002   0.001   3.322  -0.000  -0.001   0.000
  0.003   0.001  -0.001   0.002   0.002   0.001   0.000  -0.000
 -0.004  -0.002   0.002  -0.003  -0.003  -0.001   0.000   0.000
  0.012   0.004  -0.004   0.000  -0.007  -0.002  -0.001   0.001
  0.000   0.007   0.005   0.011   0.000   0.000  -0.001  -0.001
  0.007   0.000  -0.007   0.004   0.012  -0.001   0.000   0.001
  0.020   0.006  -0.006   0.000  -0.011  -0.001  -0.001   0.000
  0.000   0.012   0.008   0.019   0.000   0.001  -0.000  -0.002
  0.011   0.000  -0.012   0.007   0.019   0.000   0.001   0.000
 pseudopotential strength for first ion, spin component:           2
-16.700   0.005  -0.005   0.003  -0.001   3.331  -0.002   0.002
  0.005 -16.704  -0.003  -0.000  -0.003  -0.002   3.333   0.002
 -0.005  -0.003 -16.693   0.010   0.004   0.002   0.002   3.327
  0.003  -0.000   0.010 -16.690  -0.002  -0.001   0.001  -0.005
 -0.001  -0.003   0.004  -0.002 -16.684   0.001   0.002  -0.003
  3.331  -0.002   0.002  -0.001   0.001   6.188   0.001  -0.001
 -0.002   3.333   0.002   0.001   0.002   0.001   6.187  -0.000
  0.002   0.002   3.327  -0.005  -0.003  -0.001  -0.000   6.188
 -0.001   0.001  -0.005   3.326   0.001   0.001   0.001   0.002
  0.001   0.002  -0.003   0.001   3.323  -0.000  -0.001   0.000
  0.003   0.001  -0.001   0.002   0.002   0.002   0.000  -0.001
 -0.004  -0.002   0.002  -0.003  -0.002  -0.002  -0.000   0.001
  0.012   0.004  -0.004   0.000  -0.007  -0.002  -0.001   0.001
  0.000   0.007   0.005   0.011   0.000   0.000  -0.001  -0.001
  0.007   0.000  -0.007   0.004   0.012  -0.001   0.000   0.001
  0.020   0.006  -0.006   0.000  -0.011  -0.001  -0.001   0.000
  0.000   0.012   0.008   0.018   0.000   0.001  -0.001  -0.002
  0.011   0.000  -0.012   0.007   0.019  -0.000   0.001   0.000
 total augmentation occupancy for first ion, spin component:           1
  2.001   0.000  -0.000   0.000   0.000   0.000   0.000  -0.000   0.000   0.000   0.001   0.001  -0.020  -0.001  -0.010   0.008
  0.000   2.000   0.000   0.000   0.000   0.000  -0.000   0.001   0.001   0.000   0.000   0.001  -0.004  -0.014  -0.001   0.004
 -0.000   0.000   2.000  -0.000  -0.000  -0.000   0.001  -0.002  -0.001  -0.001  -0.000  -0.001   0.003  -0.009   0.013  -0.003
  0.000   0.000  -0.000   2.000   0.000   0.000   0.001  -0.001  -0.002   0.001   0.000   0.001  -0.001  -0.014  -0.009  -0.000
  0.000   0.000  -0.000   0.000   2.000   0.000   0.000  -0.001   0.001  -0.003   0.000   0.001   0.008  -0.002  -0.017  -0.005
  0.000   0.000  -0.000   0.000   0.000   0.028   0.003  -0.005   0.003  -0.003   0.010  -0.003   0.065   0.011   0.020  -0.008
  0.000  -0.000   0.001   0.001   0.000   0.003   0.027  -0.009  -0.005  -0.003   0.004  -0.001  -0.009   0.050   0.010   0.001
 -0.000   0.001  -0.002  -0.001  -0.001  -0.005  -0.009   0.050   0.016   0.010  -0.005   0.002   0.003   0.036  -0.048   0.000
  0.000   0.001  -0.001  -0.002   0.001   0.003  -0.005   0.016   0.052  -0.011   0.007  -0.002   0.009   0.021   0.030  -0.001
  0.000   0.000  -0.001   0.001  -0.003  -0.003  -0.003   0.010  -0.011   0.062   0.006  -0.002  -0.021   0.017   0.041   0.003
  0.001   0.000  -0.000   0.000   0.000   0.010   0.004  -0.005   0.007   0.006   2.072  -0.020  -0.061  -0.043  -0.106   0.001
  0.001   0.001  -0.001   0.001   0.001  -0.003  -0.001   0.002  -0.002  -0.002  -0.020   0.035   0.039   0.027   0.067  -0.004
 -0.020  -0.004   0.003  -0.001   0.008   0.065  -0.009   0.003   0.009  -0.021  -0.061   0.039   0.935   0.014   0.035  -0.095
 -0.001  -0.014  -0.009  -0.014  -0.002   0.011   0.050   0.036   0.021   0.017  -0.043   0.027   0.014   0.925   0.025  -0.001
 -0.010  -0.001   0.013  -0.009  -0.017   0.020   0.010  -0.048   0.030   0.041  -0.106   0.067   0.035   0.025   0.975  -0.003
  0.008   0.004  -0.003  -0.000  -0.005  -0.008   0.001   0.000  -0.001   0.003   0.001  -0.004  -0.095  -0.001  -0.003   0.012
 -0.000   0.004   0.003   0.009  -0.000  -0.002  -0.006  -0.004  -0.003  -0.002   0.001  -0.003  -0.001  -0.094  -0.002   0.000
  0.005  -0.000  -0.004   0.003   0.008  -0.003  -0.002   0.006  -0.004  -0.005   0.002  -0.006  -0.003  -0.002  -0.098   0.000
 total augmentation occupancy for first ion, spin component:           2
 -0.000  -0.000   0.000  -0.000   0.000  -0.000  -0.000   0.000  -0.000  -0.000  -0.000  -0.000   0.000  -0.000   0.000   0.000
 -0.000   0.000  -0.000  -0.000   0.000  -0.000  -0.000   0.000  -0.000   0.000  -0.000  -0.000   0.000   0.000  -0.000   0.000
  0.000  -0.000  -0.000  -0.000   0.000   0.000   0.000  -0.000  -0.000   0.000   0.000   0.000   0.000   0.000  -0.000  -0.000
 -0.000  -0.000  -0.000  -0.000  -0.000  -0.000  -0.000  -0.000  -0.000  -0.000  -0.000  -0.000   0.000   0.000   0.000  -0.000
  0.000   0.000   0.000  -0.000  -0.000  -0.000   0.000   0.000  -0.000  -0.000  -0.000  -0.000  -0.000   0.000   0.000  -0.000
 -0.000  -0.000   0.000  -0.000  -0.000   0.000   0.000   0.000  -0.000   0.000   0.000  -0.000  -0.001   0.001  -0.001   0.000
 -0.000  -0.000   0.000  -0.000   0.000   0.000   0.000  -0.000  -0.000  -0.000   0.000  -0.000  -0.002  -0.000   0.001   0.000
  0.000   0.000  -0.000  -0.000   0.000   0.000  -0.000   0.000  -0.000   0.000  -0.000   0.000   0.000  -0.000   0.001   0.000
 -0.000  -0.000  -0.000  -0.000  -0.000  -0.000  -0.000  -0.000   0.000  -0.000   0.000  -0.000  -0.000  -0.002   0.000   0.000
 -0.000   0.000   0.000  -0.000  -0.000   0.000  -0.000   0.000  -0.000   0.000   0.000  -0.000   0.001  -0.000  -0.001   0.000
 -0.000  -0.000   0.000  -0.000  -0.000   0.000   0.000  -0.000   0.000   0.000   0.000  -0.000   0.003   0.002   0.005   0.000
 -0.000  -0.000   0.000  -0.000  -0.000  -0.000  -0.000   0.000  -0.000  -0.000  -0.000   0.000  -0.002  -0.001  -0.003   0.000
  0.000   0.000   0.000   0.000  -0.000  -0.001  -0.002   0.000  -0.000   0.001   0.003  -0.002  -0.002  -0.002  -0.006   0.000
 -0.000   0.000   0.000   0.000   0.000   0.001  -0.000  -0.000  -0.002  -0.000   0.002  -0.001  -0.002  -0.000  -0.004   0.000
  0.000  -0.000  -0.000   0.000   0.000  -0.001   0.001   0.001   0.000  -0.001   0.005  -0.003  -0.006  -0.004  -0.009   0.000
  0.000   0.000  -0.000  -0.000  -0.000   0.000   0.000   0.000   0.000   0.000   0.000   0.000   0.000   0.000   0.000   0.000
 -0.000   0.000  -0.000   0.000  -0.000  -0.000   0.000  -0.000   0.000   0.000   0.000   0.000   0.000  -0.000   0.000  -0.000
  0.000  -0.000  -0.000   0.000   0.000   0.000  -0.000  -0.000   0.000   0.000   0.000   0.000   0.000   0.000   0.000  -0.000


------------------------ aborting loop because EDIFF is reached ----------------------------------------


     CALCP:  cpu time  159.1156: real time  159.1226
 
            Ionic dipole moment: p[ion]=(   -10.42118    -6.01546    -4.25325 ) electrons Angst
 
    Spin resolved dipole moment: p[sp1]=(    -0.31470    -0.18168    -0.12840 ) electrons Angst
                                 p[sp2]=(     5.19567     2.99730     2.11963 ) electrons Angst
 
 Total electronic dipole moment: p[elc]=(     4.88096     2.81561     1.99123 ) electrons Angst
 
 
 


 total charge     
 
# of ion     s       p       d       tot
----------------------------------------
  1        1.652   0.876  10.033  12.560
  2        1.653   0.874  10.033  12.560
  3        1.563   3.452   0.000   5.015
  4        1.566   3.355   0.000   4.921
  5        1.564   3.436   0.000   5.000
  6        1.563   3.417   0.000   4.981
  7        1.566   3.353   0.000   4.919
  8        1.564   3.486   0.000   5.050
  9        0.310   6.393   5.822  12.526
 10        0.310   6.393   5.811  12.513
------------------------------------------------
tot       13.311  35.035  31.698  80.045
 


 magnetization (x)
 
# of ion     s       p       d       tot
----------------------------------------
  1        0.001  -0.004   0.001  -0.003
  2       -0.001   0.004  -0.001   0.003
  3        0.000   0.057   0.000   0.058
  4        0.001   0.052   0.000   0.053
  5        0.001   0.049   0.000   0.050
  6       -0.001  -0.047   0.000  -0.048
  7        0.001  -0.062   0.000  -0.061
  8       -0.002  -0.043   0.000  -0.044
  9        0.007   0.015   3.808   3.830
 10       -0.006  -0.015  -3.817  -3.838
------------------------------------------------
tot        0.001   0.007  -0.008  -0.001
 
    CHARGE:  cpu time    0.7365: real time    0.7363
    FORLOC:  cpu time    0.0059: real time    0.0059
    FORNL :  cpu time    6.2280: real time    6.2256
    STRESS:  cpu time    7.4706: real time    7.4678
    FORCOR:  cpu time    0.0217: real time    0.0217
    FORHAR:  cpu time    0.0117: real time    0.0117
    MIXING:  cpu time    0.0043: real time    0.0043
    OFIELD:  cpu time    0.0001: real time    0.0001

  FORCE on cell =-STRESS in cart. coord.  units (eV):
  Direction    XX          YY          ZZ          XY          YZ          ZX
  --------------------------------------------------------------------------------------
  Alpha Z   427.62532   427.62532   427.62532
  Ewald   -2886.18335 -2835.47834 -2822.80783   -43.89413   -17.91474   -31.03550
  Hartree   922.81446   954.78437   962.71327   -27.58349   -11.29906   -19.50037
  E(xc)    -495.52355  -495.53187  -495.53219     0.00451     0.00317     0.00305
  Local      71.79564   -12.09676   -32.88386    72.35241    29.65900    51.14529
  n-local    21.46402    21.75835    22.47801     1.12521    -0.20007     1.25830
  augment   591.24020   592.50311   592.78874    -1.04708    -0.44841    -0.73932
  Kinetic  1348.34036  1345.71481  1344.82150    -0.12277     1.11159    -4.32087
  Fock        0.00000     0.00000     0.00000     0.00000     0.00000     0.00000
  -------------------------------------------------------------------------------------
  Total       0.00365     0.02325     0.02814    -0.01697    -0.00692    -0.01200
  in kB       0.04961     0.31612     0.38272    -0.23072    -0.09416    -0.16313
  external pressure =        0.25 kB  Pullay stress =        0.00 kB


 VOLUME and BASIS-vectors are now :
 -----------------------------------------------------------------------------
  energy-cutoff  :      520.00
  volume of cell :      117.82
      direct lattice vectors                 reciprocal lattice vectors
     5.506408058  0.003758891  0.002657737     0.181714183 -0.105079080 -0.074296517
     2.757291108  4.766328731  0.002657737    -0.000107432  0.209908661 -0.074296517
     2.757291108  1.591602008  4.492738551    -0.000107432 -0.000062013  0.222669294

  length of vectors
     5.506409982  5.506409982  5.506409982     0.222669329  0.222669329  0.222669329


 FORCES acting on ions
    electron-ion (+dipol)            ewald-force                    non-local-force                 convergence-correction
 -----------------------------------------------------------------------------------------------
   0.175E+03 0.101E+03 0.718E+02   -.182E+03 -.105E+03 -.745E+02   0.813E+01 0.469E+01 0.332E+01   -.292E-04 -.162E-04 -.327E-04
   0.174E+03 0.100E+03 0.705E+02   -.182E+03 -.105E+03 -.745E+02   0.813E+01 0.469E+01 0.332E+01   0.412E-05 0.118E-05 0.227E-04
   -.391E+02 -.256E+02 0.303E+02   0.424E+02 0.286E+02 -.290E+02   -.358E+01 -.270E+01 -.122E+01   -.109E-04 0.225E-04 0.564E-05
   -.233E+01 -.434E+02 -.344E+02   0.581E+01 0.456E+02 0.366E+02   -.357E+01 -.208E+01 -.214E+01   0.475E-05 -.238E-04 0.222E-04
   -.418E+02 0.218E+02 -.297E+02   0.460E+02 -.198E+02 0.308E+02   -.413E+01 -.174E+01 -.124E+01   0.167E-04 -.716E-05 -.261E-04
   -.419E+02 -.203E+02 0.301E+02   0.460E+02 0.224E+02 -.290E+02   -.413E+01 -.175E+01 -.122E+01   0.168E-04 -.237E-04 -.118E-04
   -.389E+02 0.200E+02 -.345E+02   0.424E+02 -.178E+02 0.366E+02   -.358E+01 -.205E+01 -.214E+01   -.429E-05 -.480E-05 0.273E-04
   -.240E+01 -.469E+02 -.294E+02   0.581E+01 0.497E+02 0.308E+02   -.357E+01 -.271E+01 -.124E+01   -.340E-05 0.220E-04 -.143E-04
   -.872E+02 -.503E+02 -.365E+02   0.883E+02 0.510E+02 0.360E+02   -.136E+01 -.787E+00 -.556E+00   0.468E-04 0.304E-04 0.485E-04
   -.868E+02 -.500E+02 -.344E+02   0.883E+02 0.510E+02 0.360E+02   -.136E+01 -.787E+00 -.556E+00   -.195E-04 -.924E-05 -.369E-04
 -----------------------------------------------------------------------------------------------
   0.829E+01 0.652E+01 0.369E+01   -.568E-13 -.711E-14 0.000E+00   -.904E+01 -.522E+01 -.369E+01   0.218E-04 -.870E-05 0.455E-05
 
 
 POSITION                                       TOTAL-FORCE (eV/Angst)
 -----------------------------------------------------------------------------------
      0.00475      0.00274      0.00194         0.000954      0.000551      0.000390
      5.51525      3.18359      2.25097         0.000954      0.000551      0.000390
      6.66888      5.12472      1.78532        -0.000014     -0.000856      0.000762
      6.27250      4.07844      4.23629         0.000368     -0.000229     -0.001061
      7.77314      2.75396      2.43271        -0.000748      0.000857      0.000138
      5.01993      1.62245      4.02903        -0.000748      0.000416      0.000762
      3.91567      4.97724      1.98992        -0.000014      0.000433     -0.001061
      6.26841      2.17658      0.18634         0.000368     -0.001077      0.000138
      2.51298      1.45058      1.02564        -0.000561     -0.000324     -0.000229
      8.02348      4.63142      3.27466        -0.000561     -0.000324     -0.000229
 -----------------------------------------------------------------------------------
    total drift:                               -0.749544      1.297567     -0.000370


--------------------------------------------------------------------------------------------------------



  FREE ENERGIE OF THE ION-ELECTRON SYSTEM (eV)
  ---------------------------------------------------
  free  energy   TOTEN  =       -72.13556717 eV

  energy  without entropy=      -72.13556717  energy(sigma->0) =      -72.13556717
 


--------------------------------------------------------------------------------------------------------


    POTLOK:  cpu time    0.9100: real time    0.9096


--------------------------------------------------------------------------------------------------------


     LOOP+:  cpu time  444.4623: real time  446.3188
    4ORBIT:  cpu time    0.0000: real time    0.0000
 


 total charge     
 
# of ion     s       p       d       tot
----------------------------------------
  1        1.652   0.876  10.033  12.560
  2        1.653   0.874  10.033  12.560
  3        1.563   3.452   0.000   5.015
  4        1.566   3.355   0.000   4.921
  5        1.564   3.436   0.000   5.000
  6        1.563   3.417   0.000   4.981
  7        1.566   3.353   0.000   4.919
  8        1.564   3.486   0.000   5.050
  9        0.310   6.393   5.822  12.526
 10        0.310   6.393   5.811  12.513
------------------------------------------------
tot       13.311  35.035  31.698  80.045
 


 magnetization (x)
 
# of ion     s       p       d       tot
----------------------------------------
  1        0.001  -0.004   0.001  -0.003
  2       -0.001   0.004  -0.001   0.003
  3        0.000   0.057   0.000   0.058
  4        0.001   0.052   0.000   0.053
  5        0.001   0.049   0.000   0.050
  6       -0.001  -0.047   0.000  -0.048
  7        0.001  -0.062   0.000  -0.061
  8       -0.002  -0.043   0.000  -0.044
  9        0.007   0.015   3.808   3.830
 10       -0.006  -0.015  -3.817  -3.838
------------------------------------------------
tot        0.001   0.007  -0.008  -0.001
 

 total amount of memory used by VASP on root node   229472. kBytes
========================================================================

   base      :      30000. kBytes
   nonl-proj :      90932. kBytes
   fftplans  :       2401. kBytes
   grid      :       8568. kBytes
   one-center:        311. kBytes
   wavefun   :      97260. kBytes
 
  
  
 General timing and accounting informations for this job:
 ========================================================
  
                  Total CPU time used (sec):      452.952
                            User time (sec):      448.382
                          System time (sec):        4.570
                         Elapsed time (sec):      455.925
  
                   Maximum memory used (kb):      337808.
                   Average memory used (kb):           0.
  
                          Minor page faults:        67928
                          Major page faults:            0
                 Voluntary context switches:          552
