   10   10    1    2
  0.1285713E+02  0.5706178E-09  0.5706178E-09  0.5706178E-09  0.5000000E-15
  1.000000000000000E-004
  CAR 
 unknown system                          
     94    120     56
 
  0.5000000E+00  0.0000000E+00  0.0000000E+00  0.8333333E-02
    1      -49.689611    -49.684825   1.000000   1.000000
    2      -49.654890    -49.650409   1.000000   1.000000
    3      -49.654860    -49.650375   1.000000   1.000000
    4      -45.373091    -45.377811   1.000000   1.000000
    5      -45.339843    -45.344333   1.000000   1.000000
    6      -45.339813    -45.344307   1.000000   1.000000
    7      -16.286195    -16.286298   1.000000   1.000000
    8      -16.285504    -16.285453   1.000000   1.000000
    9      -16.273203    -16.273270   1.000000   1.000000
   10      -16.271675    -16.271589   1.000000   1.000000
   11      -16.229655    -16.229580   1.000000   1.000000
   12      -16.228364    -16.228428   1.000000   1.000000
   13      -16.218462    -16.218376   1.000000   1.000000
   14      -16.216736    -16.216852   1.000000   1.000000
   15      -16.206508    -16.206715   1.000000   1.000000
   16      -16.204925    -16.204666   1.000000   1.000000
   17      -11.866214    -11.864918   1.000000   1.000000
   18      -11.814817    -11.815777   1.000000   1.000000
   19      -10.889458    -10.887401   1.000000   1.000000
   20      -10.788221    -10.789410   1.000000   1.000000
   21      -10.758994    -10.758440   1.000000   1.000000
   22      -10.697285    -10.698892   1.000000   1.000000
   23       -3.538249     -3.538290   1.000000   1.000000
   24       -3.531452     -3.531345   1.000000   1.000000
   25        0.770913      0.772890   1.000000   1.000000
   26        0.872615      0.872069   1.000000   1.000000
   27        1.065971      1.067793   1.000000   1.000000
   28        1.261623      1.262120   1.000000   1.000000
   29        1.419062      1.420868   1.000000   1.000000
   30        1.611509      1.611020   1.000000   1.000000
   31        1.886474      1.887932   1.000000   1.000000
   32        2.136885      2.137278   1.000000   1.000000
   33        2.375662      2.377144   1.000000   1.000000
   34        2.744766      2.745543   1.000000   1.000000
   35        2.902492      2.903089   1.000000   1.000000
   36        3.498103      3.499926   1.000000   1.000000
   37        3.785988      3.787865   1.000000   1.000000
   38        3.839580      3.839369   1.000000   1.000000
   39        4.081090      4.082201   1.000000   1.000000
   40        4.155419      4.154827   1.000000   1.000000
   41        4.220471      4.219767   1.000000   1.000000
   42        4.564790      4.564579   1.000000   1.000000
   43        4.577350      4.577957   1.000000   1.000000
   44        5.137899      5.137564   1.000000   1.000000
   45        5.451930      5.452934   1.000000   1.000000
   46        6.085302      6.086194   1.000000   1.000000
   47        6.272703      6.274187   1.000000   1.000000
   48        7.438185      7.435012   0.000000   0.000000
   49        7.529173      7.525854   0.000000   0.000000
   50        7.747064      7.744202   0.000000   0.000000
   51        8.748105      8.745040   0.000000   0.000000
   52        8.851233      8.848216   0.000000   0.000000
   53        9.747228      9.748128   0.000000   0.000000
   54        9.843564      9.842391   0.000000   0.000000
   55       11.016246     11.016116   0.000000   0.000000
   56       11.064587     11.064520   0.000000   0.000000
 
  0.5000000E+00  0.2173913E-01  0.0000000E+00  0.8333333E-02
    1      -49.689611    -49.684825   1.000000   1.000000
    2      -49.654888    -49.650405   1.000000   1.000000
    3      -49.654857    -49.650373   1.000000   1.000000
    4      -45.373091    -45.377811   1.000000   1.000000
    5      -45.339839    -45.344332   1.000000   1.000000
    6      -45.339811    -45.344304   1.000000   1.000000
    7      -16.287411    -16.286942   1.000000   1.000000
    8      -16.284824    -16.285559   1.000000   1.000000
    9      -16.273826    -16.273029   1.000000   1.000000
   10      -16.270524    -16.271090   1.000000   1.000000
   11      -16.229732    -16.229566   1.000000   1.000000
   12      -16.228353    -16.228527   1.000000   1.000000
   13      -16.218447    -16.218384   1.000000   1.000000
   14      -16.216766    -16.216816   1.000000   1.000000
   15      -16.206526    -16.206756   1.000000   1.000000
   16      -16.204754    -16.204493   1.000000   1.000000
   17      -11.871242    -11.870060   1.000000   1.000000
   18      -11.808139    -11.808999   1.000000   1.000000
   19      -10.890540    -10.888639   1.000000   1.000000
   20      -10.792452    -10.790340   1.000000   1.000000
   21      -10.756461    -10.760421   1.000000   1.000000
   22      -10.696471    -10.696695   1.000000   1.000000
   23       -3.550276     -3.550232   1.000000   1.000000
   24       -3.519802     -3.519786   1.000000   1.000000
   25        0.769693      0.769596   1.000000   1.000000
   26        0.873100      0.872303   1.000000   1.000000
   27        1.067200      1.072028   1.000000   1.000000
   28        1.261611      1.255763   1.000000   1.000000
   29        1.421488      1.427293   1.000000   1.000000
   30        1.610067      1.615266   1.000000   1.000000
   31        1.880937      1.885685   1.000000   1.000000
   32        2.142455      2.138953   1.000000   1.000000
   33        2.383755      2.381742   1.000000   1.000000
   34        2.745255      2.740066   1.000000   1.000000
   35        2.902491      2.909109   1.000000   1.000000
   36        3.496264      3.496858   1.000000   1.000000
   37        3.779128      3.778191   1.000000   1.000000
   38        3.839088      3.840651   1.000000   1.000000
   39        4.079634      4.078604   1.000000   1.000000
   40        4.159581      4.157091   1.000000   1.000000
   41        4.219433      4.222017   1.000000   1.000000
   42        4.555900      4.563758   1.000000   1.000000
   43        4.585959      4.583965   1.000000   1.000000
   44        5.140815      5.136482   1.000000   1.000000
   45        5.448975      5.453435   1.000000   1.000000
   46        6.083403      6.084587   1.000000   1.000000
   47        6.272858      6.272036   1.000000   1.000000
   48        7.439252      7.435697   0.000000   0.000000
   49        7.529306      7.525881   0.000000   0.000000
   50        7.746385      7.743374   0.000000   0.000000
   51        8.748212      8.742174   0.000000   0.000000
   52        8.850717      8.852191   0.000000   0.000000
   53        9.747114      9.749430   0.000000   0.000000
   54        9.845168      9.842244   0.000000   0.000000
   55       10.990565     10.988060   0.000000   0.000000
   56       11.087911     11.090040   0.000000   0.000000
 
  0.5000000E+00  0.4347826E-01  0.0000000E+00  0.8333333E-02
    1      -49.689611    -49.684825   1.000000   1.000000
    2      -49.654886    -49.650402   1.000000   1.000000
    3      -49.654853    -49.650371   1.000000   1.000000
    4      -45.373091    -45.377811   1.000000   1.000000
    5      -45.339835    -45.344329   1.000000   1.000000
    6      -45.339809    -45.344300   1.000000   1.000000
    7      -16.289411    -16.288765   1.000000   1.000000
    8      -16.284366    -16.285683   1.000000   1.000000
    9      -16.274324    -16.272587   1.000000   1.000000
   10      -16.268531    -16.269636   1.000000   1.000000
   11      -16.229966    -16.229535   1.000000   1.000000
   12      -16.228329    -16.228826   1.000000   1.000000
   13      -16.218412    -16.218411   1.000000   1.000000
   14      -16.216854    -16.216727   1.000000   1.000000
   15      -16.206571    -16.206855   1.000000   1.000000
   16      -16.204283    -16.204022   1.000000   1.000000
   17      -11.881924    -11.880870   1.000000   1.000000
   18      -11.792633    -11.793405   1.000000   1.000000
   19      -10.893850    -10.892310   1.000000   1.000000
   20      -10.802185    -10.793700   1.000000   1.000000
   21      -10.751914    -10.764988   1.000000   1.000000
   22      -10.693960    -10.691037   1.000000   1.000000
   23       -3.565656     -3.565579   1.000000   1.000000
   24       -3.505566     -3.505599   1.000000   1.000000
   25        0.765860      0.760180   1.000000   1.000000
   26        0.874758      0.873128   1.000000   1.000000
   27        1.070896      1.083957   1.000000   1.000000
   28        1.261599      1.240273   1.000000   1.000000
   29        1.428670      1.443085   1.000000   1.000000
   30        1.605571      1.627853   1.000000   1.000000
   31        1.867679      1.879391   1.000000   1.000000
   32        2.155821      2.143869   1.000000   1.000000
   33        2.407955      2.395128   1.000000   1.000000
   34        2.746396      2.725746   1.000000   1.000000
   35        2.902835      2.925129   1.000000   1.000000
   36        3.490937      3.487725   1.000000   1.000000
   37        3.760014      3.754242   1.000000   1.000000
   38        3.837498      3.840428   1.000000   1.000000
   39        4.073560      4.068207   1.000000   1.000000
   40        4.171593      4.164407   1.000000   1.000000
   41        4.217090      4.227405   1.000000   1.000000
   42        4.543794      4.564096   1.000000   1.000000
   43        4.597645      4.598631   1.000000   1.000000
   44        5.149089      5.133389   1.000000   1.000000
   45        5.440252      5.454850   1.000000   1.000000
   46        6.077875      6.079751   1.000000   1.000000
   47        6.273124      6.265657   1.000000   1.000000
   48        7.442413      7.437694   0.000000   0.000000
   49        7.529679      7.525993   0.000000   0.000000
   50        7.744375      7.740902   0.000000   0.000000
   51        8.747790      8.734414   0.000000   0.000000
   52        8.849986      8.863178   0.000000   0.000000
   53        9.745844      9.753092   0.000000   0.000000
   54        9.850619      9.841806   0.000000   0.000000
   55       10.949675     10.944210   0.000000   0.000000
   56       11.122272     11.126396   0.000000   0.000000
 
  0.5000000E+00  0.6521739E-01  0.0000000E+00  0.8333333E-02
    1      -49.689612    -49.684825   1.000000   1.000000
    2      -49.654886    -49.650401   1.000000   1.000000
    3      -49.654852    -49.650371   1.000000   1.000000
    4      -45.373091    -45.377812   1.000000   1.000000
    5      -45.339833    -45.344330   1.000000   1.000000
    6      -45.339810    -45.344299   1.000000   1.000000
    7      -16.291840    -16.291276   1.000000   1.000000
    8      -16.284274    -16.285814   1.000000   1.000000
    9      -16.274311    -16.272079   1.000000   1.000000
   10      -16.266312    -16.267616   1.000000   1.000000
   11      -16.230342    -16.229487   1.000000   1.000000
   12      -16.228292    -16.229295   1.000000   1.000000
   13      -16.218374    -16.218457   1.000000   1.000000
   14      -16.216986    -16.216613   1.000000   1.000000
   15      -16.206615    -16.206957   1.000000   1.000000
   16      -16.203563    -16.203315   1.000000   1.000000
   17      -11.893626    -11.892596   1.000000   1.000000
   18      -11.772999    -11.773812   1.000000   1.000000
   19      -10.899397    -10.898319   1.000000   1.000000
   20      -10.814303    -10.800572   1.000000   1.000000
   21      -10.748550    -10.769515   1.000000   1.000000
   22      -10.689675    -10.683573   1.000000   1.000000
   23       -3.581823     -3.581720   1.000000   1.000000
   24       -3.491299     -3.491384   1.000000   1.000000
   25        0.759009      0.745804   1.000000   1.000000
   26        0.878075      0.874755   1.000000   1.000000
   27        1.077078      1.101690   1.000000   1.000000
   28        1.261687      1.221860   1.000000   1.000000
   29        1.440296      1.462658   1.000000   1.000000
   30        1.597715      1.647927   1.000000   1.000000
   31        1.853281      1.870362   1.000000   1.000000
   32        2.171069      2.151658   1.000000   1.000000
   33        2.447158      2.416188   1.000000   1.000000
   34        2.747288      2.706551   1.000000   1.000000
   35        2.904586      2.947435   1.000000   1.000000
   36        3.482662      3.472739   1.000000   1.000000
   37        3.731915      3.722451   1.000000   1.000000
   38        3.834383      3.834945   1.000000   1.000000
   39        4.061651      4.052654   1.000000   1.000000
   40        4.182395      4.176150   1.000000   1.000000
   41        4.220917      4.233856   1.000000   1.000000
   42        4.533821      4.566769   1.000000   1.000000
   43        4.608057      4.619196   1.000000   1.000000
   44        5.161433      5.128743   1.000000   1.000000
   45        5.426196      5.456948   1.000000   1.000000
   46        6.069177      6.071679   1.000000   1.000000
   47        6.272952      6.255274   1.000000   1.000000
   48        7.447532      7.440844   0.000000   0.000000
   49        7.530251      7.526313   0.000000   0.000000
   50        7.741133      7.736843   0.000000   0.000000
   51        8.744768      8.723229   0.000000   0.000000
   52        8.851340      8.879348   0.000000   0.000000
   53        9.741277      9.758253   0.000000   0.000000
   54        9.861290      9.841291   0.000000   0.000000
   55       10.908208     10.900120   0.000000   0.000000
   56       11.153056     11.158664   0.000000   0.000000
 
  0.5000000E+00  0.8695652E-01  0.0000000E+00  0.8333333E-02
    1      -49.689613    -49.684827   1.000000   1.000000
    2      -49.654887    -49.650401   1.000000   1.000000
    3      -49.654853    -49.650372   1.000000   1.000000
    4      -45.373093    -45.377813   1.000000   1.000000
    5      -45.339834    -45.344331   1.000000   1.000000
    6      -45.339811    -45.344299   1.000000   1.000000
    7      -16.294552    -16.294115   1.000000   1.000000
    8      -16.284414    -16.285957   1.000000   1.000000
    9      -16.273879    -16.271469   1.000000   1.000000
   10      -16.264035    -16.265399   1.000000   1.000000
   11      -16.230835    -16.229906   1.000000   1.000000
   12      -16.228238    -16.229406   1.000000   1.000000
   13      -16.218336    -16.218518   1.000000   1.000000
   14      -16.217140    -16.216491   1.000000   1.000000
   15      -16.206641    -16.207031   1.000000   1.000000
   16      -16.202635    -16.202416   1.000000   1.000000
   17      -11.904638    -11.903576   1.000000   1.000000
   18      -11.750988    -11.751923   1.000000   1.000000
   19      -10.907188    -10.906420   1.000000   1.000000
   20      -10.827481    -10.811184   1.000000   1.000000
   21      -10.747301    -10.772666   1.000000   1.000000
   22      -10.683772    -10.675426   1.000000   1.000000
   23       -3.598762     -3.598636   1.000000   1.000000
   24       -3.476974     -3.477117   1.000000   1.000000
   25        0.748782      0.727824   1.000000   1.000000
   26        0.883550      0.877321   1.000000   1.000000
   27        1.085752      1.122889   1.000000   1.000000
   28        1.262082      1.205039   1.000000   1.000000
   29        1.455769      1.483189   1.000000   1.000000
   30        1.586577      1.673133   1.000000   1.000000
   31        1.842994      1.860786   1.000000   1.000000
   32        2.184829      2.161669   1.000000   1.000000
   33        2.498025      2.443302   1.000000   1.000000
   34        2.746754      2.685824   1.000000   1.000000
   35        2.909443      2.973178   1.000000   1.000000
   36        3.472248      3.452272   1.000000   1.000000
   37        3.698006      3.686802   1.000000   1.000000
   38        3.829060      3.823846   1.000000   1.000000
   39        4.045370      4.034047   1.000000   1.000000
   40        4.175866      4.189208   1.000000   1.000000
   41        4.243620      4.241254   1.000000   1.000000
   42        4.527486      4.571341   1.000000   1.000000
   43        4.616617      4.643719   1.000000   1.000000
   44        5.176054      5.123267   1.000000   1.000000
   45        5.407538      5.459387   1.000000   1.000000
   46        6.057930      6.060369   1.000000   1.000000
   47        6.271616      6.241246   1.000000   1.000000
   48        7.454421      7.444864   0.000000   0.000000
   49        7.530969      7.527071   0.000000   0.000000
   50        7.736826      7.731303   0.000000   0.000000
   51        8.736687      8.709598   0.000000   0.000000
   52        8.857536      8.899236   0.000000   0.000000
   53        9.731548      9.762868   0.000000   0.000000
   54        9.877934      9.841772   0.000000   0.000000
   55       10.869170     10.859339   0.000000   0.000000
   56       11.177378     11.184062   0.000000   0.000000
 
  0.5000000E+00  0.1086957E+00  0.0000000E+00  0.8333333E-02
    1      -49.689613    -49.684827   1.000000   1.000000
    2      -49.654888    -49.650403   1.000000   1.000000
    3      -49.654855    -49.650373   1.000000   1.000000
    4      -45.373093    -45.377813   1.000000   1.000000
    5      -45.339836    -45.344331   1.000000   1.000000
    6      -45.339811    -45.344302   1.000000   1.000000
    7      -16.297437    -16.297114   1.000000   1.000000
    8      -16.284671    -16.286108   1.000000   1.000000
    9      -16.273162    -16.270749   1.000000   1.000000
   10      -16.261806    -16.263177   1.000000   1.000000
   11      -16.231411    -16.230597   1.000000   1.000000
   12      -16.228170    -16.229311   1.000000   1.000000
   13      -16.218317    -16.218588   1.000000   1.000000
   14      -16.217285    -16.216379   1.000000   1.000000
   15      -16.206654    -16.207074   1.000000   1.000000
   16      -16.201534    -16.201351   1.000000   1.000000
   17      -11.914363    -11.913249   1.000000   1.000000
   18      -11.727290    -11.728397   1.000000   1.000000
   19      -10.917221    -10.916427   1.000000   1.000000
   20      -10.841170    -10.824541   1.000000   1.000000
   21      -10.748097    -10.774865   1.000000   1.000000
   22      -10.676742    -10.667221   1.000000   1.000000
   23       -3.616514     -3.616366   1.000000   1.000000
   24       -3.462515     -3.462722   1.000000   1.000000
   25        0.735086      0.707383   1.000000   1.000000
   26        0.891439      0.880949   1.000000   1.000000
   27        1.096868      1.144632   1.000000   1.000000
   28        1.263108      1.193109   1.000000   1.000000
   29        1.473920      1.504531   1.000000   1.000000
   30        1.573366      1.699047   1.000000   1.000000
   31        1.839474      1.854110   1.000000   1.000000
   32        2.196533      2.172944   1.000000   1.000000
   33        2.554889      2.474380   1.000000   1.000000
   34        2.744361      2.666360   1.000000   1.000000
   35        2.919362      3.000406   1.000000   1.000000
   36        3.460654      3.426922   1.000000   1.000000
   37        3.660570      3.650319   1.000000   1.000000
   38        3.820847      3.808012   1.000000   1.000000
   39        4.026721      4.013731   1.000000   1.000000
   40        4.158674      4.199016   1.000000   1.000000
   41        4.276275      4.251933   1.000000   1.000000
   42        4.525395      4.577249   1.000000   1.000000
   43        4.623067      4.669936   1.000000   1.000000
   44        5.190934      5.117900   1.000000   1.000000
   45        5.385332      5.461765   1.000000   1.000000
   46        6.044783      6.045846   1.000000   1.000000
   47        6.268340      6.224049   1.000000   1.000000
   48        7.462800      7.449319   0.000000   0.000000
   49        7.531781      7.528627   0.000000   0.000000
   50        7.731674      7.724416   0.000000   0.000000
   51        8.722363      8.693873   0.000000   0.000000
   52        8.870015      8.921863   0.000000   0.000000
   53        9.715940      9.763075   0.000000   0.000000
   54        9.899969      9.845935   0.000000   0.000000
   55       10.834532     10.824084   0.000000   0.000000
   56       11.195699     11.201201   0.000000   0.000000
 
  0.5000000E+00  0.1304348E+00  0.0000000E+00  0.8333333E-02
    1      -49.689612    -49.684827   1.000000   1.000000
    2      -49.654888    -49.650402   1.000000   1.000000
    3      -49.654853    -49.650373   1.000000   1.000000
    4      -45.373093    -45.377812   1.000000   1.000000
    5      -45.339834    -45.344331   1.000000   1.000000
    6      -45.339811    -45.344300   1.000000   1.000000
    7      -16.300402    -16.300166   1.000000   1.000000
    8      -16.284964    -16.286252   1.000000   1.000000
    9      -16.272258    -16.269930   1.000000   1.000000
   10      -16.259691    -16.261050   1.000000   1.000000
   11      -16.232042    -16.231340   1.000000   1.000000
   12      -16.228084    -16.229192   1.000000   1.000000
   13      -16.218334    -16.218663   1.000000   1.000000
   14      -16.217397    -16.216294   1.000000   1.000000
   15      -16.206636    -16.207068   1.000000   1.000000
   16      -16.200287    -16.200141   1.000000   1.000000
   17      -11.922524    -11.921368   1.000000   1.000000
   18      -11.702287    -11.703589   1.000000   1.000000
   19      -10.929441    -10.928142   1.000000   1.000000
   20      -10.855019    -10.839588   1.000000   1.000000
   21      -10.750490    -10.776741   1.000000   1.000000
   22      -10.669116    -10.659255   1.000000   1.000000
   23       -3.635083     -3.634915   1.000000   1.000000
   24       -3.447841     -3.448114   1.000000   1.000000
   25        0.718146      0.685314   1.000000   1.000000
   26        0.901695      0.885900   1.000000   1.000000
   27        1.110322      1.160165   1.000000   1.000000
   28        1.265183      1.192220   1.000000   1.000000
   29        1.491834      1.527744   1.000000   1.000000
   30        1.561610      1.719160   1.000000   1.000000
   31        1.843334      1.855488   1.000000   1.000000
   32        2.206752      2.184262   1.000000   1.000000
   33        2.608777      2.506437   1.000000   1.000000
   34        2.743103      2.651471   1.000000   1.000000
   35        2.935957      3.027345   1.000000   1.000000
   36        3.448916      3.397705   1.000000   1.000000
   37        3.621104      3.615697   1.000000   1.000000
   38        3.809339      3.788567   1.000000   1.000000
   39        4.007019      3.992175   1.000000   1.000000
   40        4.137590      4.202759   1.000000   1.000000
   41        4.311815      4.267657   1.000000   1.000000
   42        4.527448      4.584020   1.000000   1.000000
   43        4.627209      4.695416   1.000000   1.000000
   44        5.203931      5.113727   1.000000   1.000000
   45        5.361093      5.463663   1.000000   1.000000
   46        6.030335      6.028215   1.000000   1.000000
   47        6.262389      6.204213   1.000000   1.000000
   48        7.472317      7.453643   0.000000   0.000000
   49        7.532667      7.531456   0.000000   0.000000
   50        7.725947      7.716366   0.000000   0.000000
   51        8.702271      8.676021   0.000000   0.000000
   52        8.888454      8.946541   0.000000   0.000000
   53        9.694602      9.754646   0.000000   0.000000
   54        9.925991      9.856895   0.000000   0.000000
   55       10.805507     10.795946   0.000000   0.000000
   56       11.205097     11.210376   0.000000   0.000000
 
  0.5000000E+00  0.1521739E+00  0.0000000E+00  0.8333333E-02
    1      -49.689614    -49.684828   1.000000   1.000000
    2      -49.654888    -49.650401   1.000000   1.000000
    3      -49.654852    -49.650372   1.000000   1.000000
    4      -45.373094    -45.377813   1.000000   1.000000
    5      -45.339833    -45.344331   1.000000   1.000000
    6      -45.339811    -45.344298   1.000000   1.000000
    7      -16.303393    -16.303223   1.000000   1.000000
    8      -16.285256    -16.286386   1.000000   1.000000
    9      -16.271231    -16.269028   1.000000   1.000000
   10      -16.257740    -16.259080   1.000000   1.000000
   11      -16.232695    -16.232094   1.000000   1.000000
   12      -16.227987    -16.229056   1.000000   1.000000
   13      -16.218413    -16.218750   1.000000   1.000000
   14      -16.217463    -16.216250   1.000000   1.000000
   15      -16.206588    -16.207011   1.000000   1.000000
   16      -16.198940    -16.198827   1.000000   1.000000
   17      -11.929088    -11.927893   1.000000   1.000000
   18      -11.676234    -11.677749   1.000000   1.000000
   19      -10.943754    -10.941495   1.000000   1.000000
   20      -10.868895    -10.855635   1.000000   1.000000
   21      -10.754095    -10.778736   1.000000   1.000000
   22      -10.661407    -10.651759   1.000000   1.000000
   23       -3.654437     -3.654252   1.000000   1.000000
   24       -3.432916     -3.433255   1.000000   1.000000
   25        0.698402      0.662189   1.000000   1.000000
   26        0.913997      0.892602   1.000000   1.000000
   27        1.125952      1.162509   1.000000   1.000000
   28        1.268749      1.208240   1.000000   1.000000
   29        1.501378      1.553984   1.000000   1.000000
   30        1.560214      1.727803   1.000000   1.000000
   31        1.854143      1.869240   1.000000   1.000000
   32        2.216153      2.194291   1.000000   1.000000
   33        2.642982      2.534509   1.000000   1.000000
   34        2.754648      2.646392   1.000000   1.000000
   35        2.960072      3.051693   1.000000   1.000000
   36        3.438079      3.366388   1.000000   1.000000
   37        3.580685      3.585438   1.000000   1.000000
   38        3.794629      3.766555   1.000000   1.000000
   39        3.986663      3.969268   1.000000   1.000000
   40        4.116301      4.201784   1.000000   1.000000
   41        4.347604      4.286821   1.000000   1.000000
   42        4.533120      4.591313   1.000000   1.000000
   43        4.628913      4.717840   1.000000   1.000000
   44        5.212551      5.111850   1.000000   1.000000
   45        5.337137      5.464667   1.000000   1.000000
   46        6.015078      6.007691   1.000000   1.000000
   47        6.253141      6.182294   1.000000   1.000000
   48        7.482505      7.457217   0.000000   0.000000
   49        7.533660      7.536052   0.000000   0.000000
   50        7.719955      7.707360   0.000000   0.000000
   51        8.677504      8.655847   0.000000   0.000000
   52        8.911716      8.972678   0.000000   0.000000
   53        9.668053      9.736210   0.000000   0.000000
   54        9.954449      9.875201   0.000000   0.000000
   55       10.782725     10.775534   0.000000   0.000000
   56       11.208429     11.213169   0.000000   0.000000
 
  0.5000000E+00  0.1739130E+00  0.0000000E+00  0.8333333E-02
    1      -49.689613    -49.684827   1.000000   1.000000
    2      -49.654886    -49.650399   1.000000   1.000000
    3      -49.654851    -49.650371   1.000000   1.000000
    4      -45.373093    -45.377812   1.000000   1.000000
    5      -45.339831    -45.344329   1.000000   1.000000
    6      -45.339810    -45.344297   1.000000   1.000000
    7      -16.306363    -16.306242   1.000000   1.000000
    8      -16.285525    -16.286502   1.000000   1.000000
    9      -16.270120    -16.268060   1.000000   1.000000
   10      -16.255987    -16.257299   1.000000   1.000000
   11      -16.233339    -16.232831   1.000000   1.000000
   12      -16.227876    -16.228901   1.000000   1.000000
   13      -16.218549    -16.218845   1.000000   1.000000
   14      -16.217492    -16.216259   1.000000   1.000000
   15      -16.206503    -16.206902   1.000000   1.000000
   16      -16.197504    -16.197420   1.000000   1.000000
   17      -11.934000    -11.932772   1.000000   1.000000
   18      -11.649356    -11.651107   1.000000   1.000000
   19      -10.959927    -10.956366   1.000000   1.000000
   20      -10.882676    -10.872147   1.000000   1.000000
   21      -10.758559    -10.781018   1.000000   1.000000
   22      -10.653901    -10.644793   1.000000   1.000000
   23       -3.674479     -3.674281   1.000000   1.000000
   24       -3.417745     -3.418143   1.000000   1.000000
   25        0.676414      0.638474   1.000000   1.000000
   26        0.927875      0.901560   1.000000   1.000000
   27        1.143573      1.160910   1.000000   1.000000
   28        1.274215      1.230684   1.000000   1.000000
   29        1.495990      1.583851   1.000000   1.000000
   30        1.576290      1.725982   1.000000   1.000000
   31        1.871213      1.893237   1.000000   1.000000
   32        2.225207      2.201918   1.000000   1.000000
   33        2.644957      2.552459   1.000000   1.000000
   34        2.787657      2.657448   1.000000   1.000000
   35        2.991449      3.069968   1.000000   1.000000
   36        3.429102      3.335905   1.000000   1.000000
   37        3.540419      3.561942   1.000000   1.000000
   38        3.777344      3.742886   1.000000   1.000000
   39        3.965421      3.944612   1.000000   1.000000
   40        4.097880      4.198714   1.000000   1.000000
   41        4.382088      4.306979   1.000000   1.000000
   42        4.541648      4.598933   1.000000   1.000000
   43        4.628310      4.735300   1.000000   1.000000
   44        5.213490      5.113169   1.000000   1.000000
   45        5.317059      5.464388   1.000000   1.000000
   46        5.999398      5.984663   1.000000   1.000000
   47        6.240114      6.158800   1.000000   1.000000
   48        7.492729      7.459573   0.000000   0.000000
   49        7.534922      7.542720   0.000000   0.000000
   50        7.714040      7.697671   0.000000   0.000000
   51        8.648996      8.633147   0.000000   0.000000
   52        8.938660      8.999769   0.000000   0.000000
   53        9.637037      9.708943   0.000000   0.000000
   54        9.984011      9.899405   0.000000   0.000000
   55       10.765922     10.762253   0.000000   0.000000
   56       11.206354     11.207463   0.000000   0.000000
 