 vasp.5.4.1 24Jun15 (build Jul 08 2015 18:11:14) complex                        
  
 executed on           IFC91_ompi date 2017.02.23  04:21:49
 running on    4 total cores
 distrk:  each k-point on    4 cores,    1 groups
 distr:  one band on NCORES_PER_BAND=   1 cores,    4 groups


--------------------------------------------------------------------------------------------------------


 INCAR:
 POTCAR:    PAW Bi_d 09Feb1998                    
 POTCAR:    PAW O 22Mar2012                       
 POTCAR:    PAW Fe_pv 02Aug2007                   
 POTCAR:    PAW Bi_d 09Feb1998                    
   VRHFIN =Bi:                                                                  
   LEXCH  = CA                                                                  
   EATOM  =  1963.6922 eV,  144.3273 Ry                                         
                                                                                
   TITEL  = PAW Bi_d 09Feb1998                                                  
   LULTRA =        F    use ultrasoft PP ?                                      
   IUNSCR =        1    unscreen: 0-lin 1-nonlin 2-no                           
   RPACOR =    2.200    partial core radius                                     
   POMASS =  208.980; ZVAL   =   15.000    mass and valenz                      
   RCORE  =    2.500    outmost cutoff radius                                   
   RWIGS  =    3.090; RWIGS  =    1.635    wigner-seitz radius (au A)           
   ENMAX  =  242.856; ENMIN  =  182.142 eV                                      
   ICORE  =        3    local potential                                         
   LCOR   =        T    correct aug charges                                     
   LPAW   =        T    paw PP                                                  
   EAUG   =  442.899                                                            
   DEXC   =    0.000                                                            
   RMAX   =    2.551    core radius for proj-oper                               
   RAUG   =    1.300    factor for augmentation sphere                          
   RDEP   =    2.650    radius for radial grids                                 
   RDEPT  =    2.039    core radius for aug-charge                              
                                                                                
   Atomic configuration                                                         
   16 entries                                                                   
     n  l   j            E        occ.                                          
     1  0  0.50    -89980.6503   2.0000                                         
     2  0  0.50    -16181.3045   2.0000                                         
     2  1  1.50    -13862.2990   6.0000                                         
     3  0  0.50     -3908.4084   2.0000                                         
     3  1  1.50     -3244.8754   6.0000                                         
     3  2  2.50     -2577.2631  10.0000                                         
     4  0  0.50      -896.4147   2.0000                                         
     4  1  1.50      -678.6023   6.0000                                         
     4  2  2.50      -429.2334  10.0000                                         
     4  3  3.50      -153.4278  14.0000                                         
     5  0  0.50      -157.1988   2.0000                                         
     5  1  1.50       -95.6521   6.0000                                         
     5  2  2.50       -27.2461  10.0000                                         
     6  0  0.50       -14.6896   2.0000                                         
     6  1  1.50        -4.7725   3.0000                                         
     5  3  2.50        -2.7212   0.0000                                         
   Description                                                                  
     l       E           TYP  RCUT    TYP  RCUT                                 
     2    -27.2461135     23  2.500                                             
     2     -1.3605826     23  2.500                                             
     0    -14.6896090     23  2.500                                             
     0      6.8029130     23  2.500                                             
     1     -4.7725387     23  2.500                                             
     1     13.6058260     23  2.500                                             
     3     -1.3605826      7  2.500                                             
  local pseudopotential read in
  partial core-charges read in
  partial kinetic energy density read in
  atomic valenz-charges read in
  non local Contribution for L=           2  read in
    real space projection operators read in
  non local Contribution for L=           2  read in
    real space projection operators read in
  non local Contribution for L=           0  read in
    real space projection operators read in
  non local Contribution for L=           0  read in
    real space projection operators read in
  non local Contribution for L=           1  read in
    real space projection operators read in
  non local Contribution for L=           1  read in
    real space projection operators read in
    PAW grid and wavefunctions read in
 
   number of l-projection  operators is LMAX  =           6
   number of lm-projection operators is LMMAX =          18
 
 POTCAR:    PAW O 22Mar2012                       
   VRHFIN =O: s2p4                                                              
   LEXCH  = CA                                                                  
   EATOM  =   431.4380 eV,   31.7098 Ry                                         
                                                                                
   TITEL  = PAW O 22Mar2012                                                     
   LULTRA =        F    use ultrasoft PP ?                                      
   IUNSCR =        1    unscreen: 0-lin 1-nonlin 2-no                           
   RPACOR =    1.200    partial core radius                                     
   POMASS =   16.000; ZVAL   =    6.000    mass and valenz                      
   RCORE  =    1.520    outmost cutoff radius                                   
   RWIGS  =    1.550; RWIGS  =    0.820    wigner-seitz radius (au A)           
   ENMAX  =  400.000; ENMIN  =  300.000 eV                                      
   ICORE  =        2    local potential                                         
   LCOR   =        T    correct aug charges                                     
   LPAW   =        T    paw PP                                                  
   EAUG   =  605.392                                                            
   DEXC   =    0.000                                                            
   RMAX   =    1.553    core radius for proj-oper                               
   RAUG   =    1.300    factor for augmentation sphere                          
   RDEP   =    1.550    radius for radial grids                                 
   RDEPT  =    1.329    core radius for aug-charge                              
                                                                                
   Atomic configuration                                                         
    4 entries                                                                   
     n  l   j            E        occ.                                          
     1  0  0.50      -510.4605   2.0000                                         
     2  0  0.50       -23.7367   2.0000                                         
     2  1  0.50        -9.1995   4.0000                                         
     3  2  1.50        -9.5241   0.0000                                         
   Description                                                                  
     l       E           TYP  RCUT    TYP  RCUT                                 
     0    -23.7366993     23  1.200                                             
     0     -9.5240782     23  1.200                                             
     1     -9.1994509     23  1.520                                             
     1      8.1634956     23  1.520                                             
     2     -9.5240782      7  1.500                                             
  local pseudopotential read in
  partial core-charges read in
  partial kinetic energy density read in
  kinetic energy density of atom read in
  atomic valenz-charges read in
  non local Contribution for L=           0  read in
    real space projection operators read in
  non local Contribution for L=           0  read in
    real space projection operators read in
  non local Contribution for L=           1  read in
    real space projection operators read in
  non local Contribution for L=           1  read in
    real space projection operators read in
    PAW grid and wavefunctions read in
 
   number of l-projection  operators is LMAX  =           4
   number of lm-projection operators is LMMAX =           8
 
 POTCAR:    PAW Fe_pv 02Aug2007                   
   VRHFIN =Fe:  d7 s1                                                           
   LEXCH  = CA                                                                  
   EATOM  =  2460.5054 eV,  180.8420 Ry                                         
                                                                                
   TITEL  = PAW Fe_pv 02Aug2007                                                 
   LULTRA =        F    use ultrasoft PP ?                                      
   IUNSCR =        1    unscreen: 0-lin 1-nonlin 2-no                           
   RPACOR =    1.750    partial core radius                                     
   POMASS =   55.847; ZVAL   =   14.000    mass and valenz                      
   RCORE  =    2.200    outmost cutoff radius                                   
   RWIGS  =    2.200; RWIGS  =    1.164    wigner-seitz radius (au A)           
   ENMAX  =  293.303; ENMIN  =  219.977 eV                                      
   ICORE  =        3    local potential                                         
   LCOR   =        T    correct aug charges                                     
   LPAW   =        T    paw PP                                                  
   EAUG   =  578.342                                                            
   DEXC   =    0.000                                                            
   RMAX   =    2.249    core radius for proj-oper                               
   RAUG   =    1.300    factor for augmentation sphere                          
   RDEP   =    2.296    radius for radial grids                                 
   RDEPT  =    1.766    core radius for aug-charge                              
                                                                                
   Atomic configuration                                                         
    8 entries                                                                   
     n  l   j            E        occ.                                          
     1  0  0.50     -6959.8071   2.0000                                         
     2  0  0.50      -811.1996   2.0000                                         
     2  1  1.50      -692.1696   6.0000                                         
     3  0  0.50       -88.7875   2.0000                                         
     3  1  1.50       -55.4703   6.0000                                         
     3  2  2.50        -4.0733   7.0000                                         
     4  0  0.50        -4.4654   1.0000                                         
     4  3  2.50        -1.3606   0.0000                                         
   Description                                                                  
     l       E           TYP  RCUT    TYP  RCUT                                 
     1    -55.4702629     23  2.000                                             
     1     -5.4423304     23  2.000                                             
     2     -4.0732955     23  2.200                                             
     2     -5.4338781     23  2.200                                             
     0     -4.4654424     23  2.200                                             
     0     27.2116520     23  2.200                                             
     3     -1.3605826     23  2.200                                             
  local pseudopotential read in
  partial core-charges read in
  partial kinetic energy density read in
  atomic valenz-charges read in
  non local Contribution for L=           1  read in
    real space projection operators read in
  non local Contribution for L=           1  read in
    real space projection operators read in
  non local Contribution for L=           2  read in
    real space projection operators read in
  non local Contribution for L=           2  read in
    real space projection operators read in
  non local Contribution for L=           0  read in
    real space projection operators read in
  non local Contribution for L=           0  read in
    real space projection operators read in
    PAW grid and wavefunctions read in
 
   number of l-projection  operators is LMAX  =           6
   number of lm-projection operators is LMMAX =          18
 
  PAW Bi_d 09Feb1998                    :
 energy of atom  1       EATOM=-1963.6922
 kinetic energy error for atom=    0.0041 (will be added to EATOM!!)
  PAW O 22Mar2012                       :
 energy of atom  2       EATOM= -431.4380
 kinetic energy error for atom=    0.0204 (will be added to EATOM!!)
  PAW Fe_pv 02Aug2007                   :
 energy of atom  3       EATOM=-2460.5054
 kinetic energy error for atom=    0.0062 (will be added to EATOM!!)
 
 
 POSCAR: Reproduced from the Neaton et al paper  
  positions in direct lattice
  velocities in cartesian coordinates
 exchange correlation table for  LEXCH =        2
   RHO(1)=    0.500       N(1)  =     2000
   RHO(2)=  100.500       N(2)  =     4000
 


--------------------------------------------------------------------------------------------------------


 ion  position               nearest neighbor table
   1  0.000  0.000  0.000-   7 2.32   8 2.32   6 2.32   5 2.43   3 2.43   4 2.43   9 3.05  10 3.27
                            10 3.27  10 3.27   2 3.90   2 3.90   2 3.90   2 3.90   2 3.90   2 3.90
   2  0.500  0.500  0.500-   4 2.32   3 2.32   5 2.32   6 2.43   8 2.43   7 2.43  10 3.05   9 3.27
                             9 3.27   9 3.27   1 3.90   1 3.90   1 3.90   1 3.90   1 3.90   1 3.90
   3  0.540  0.944  0.399-   9 1.95  10 2.04   2 2.32   1 2.43
   4  0.399  0.540  0.944-   9 1.95  10 2.04   2 2.32   1 2.43
   5  0.944  0.399  0.540-   9 1.95  10 2.04   2 2.32   1 2.43
   6  0.444  0.040  0.899-  10 1.95   9 2.04   1 2.32   2 2.43
   7  0.040  0.899  0.444-  10 1.95   9 2.04   1 2.32   2 2.43
   8  0.899  0.444  0.040-  10 1.95   9 2.04   1 2.32   2 2.43
   9  0.225  0.225  0.225-   4 1.95   3 1.95   5 1.95   7 2.04   8 2.04   6 2.04   1 3.05   2 3.27
                             2 3.27   2 3.27
  10  0.725  0.725  0.725-   8 1.95   7 1.95   6 1.95   3 2.04   4 2.04   5 2.04   2 3.05   1 3.27
                             1 3.27   1 3.27
 
  LATTYP: Found a trigonal (rhomboedric) cell.
 ALAT       =     5.5254555794
 COS(alpha) =     0.5043709152
  
  Lattice vectors:
  
 A1 = (   5.5254309258,   0.0134773369,   0.0095291963)
 A2 = (   2.7752209893,   4.7779406668,   0.0095291963)
 A3 = (   2.7752209893,   1.6019517441,   4.5013951649)


Analysis of symmetry for initial positions (statically):
=====================================================================
 Subroutine PRICEL returns:
 Original cell was already a primitive cell.
 

 Routine SETGRP: Setting up the symmetry group for a 
 trigonal (rhombohedral) supercell.


 Subroutine GETGRP returns: Found  6 space group operations
 (whereof  3 operations were pure point group operations)
 out of a pool of 12 trial point group operations.


The static configuration has the point symmetry C_3 .
 The point group associated with its full space group is C_3v.


Analysis of symmetry for dynamics (positions and initial velocities):
=====================================================================
 Subroutine PRICEL returns:
 Original cell was already a primitive cell.
 

 Routine SETGRP: Setting up the symmetry group for a 
 trigonal (rhombohedral) supercell.


 Subroutine GETGRP returns: Found  6 space group operations
 (whereof  3 operations were pure point group operations)
 out of a pool of 12 trial point group operations.


The dynamic configuration has the point symmetry C_3 .
 The point group associated with its full space group is C_3v.


Analysis of magnetic symmetry:
=====================================================================
 Subroutine PRICEL returns:
 Original cell was already a primitive cell.
 

 Subroutine MAGSYM returns: Found  6 space group operations
 (whereof  3 operations were pure point group operations)
 out of a pool of  6 trial space group operations
 (whereof  3 operations were pure point group operations)
 and found also     1 'primitive' translations


The magnetic configuration has the point symmetry C_3 .
 The point group associated with its full space group is C_3v.
 
 
 KPOINTS: Gamma centred mesh                      

Automatic generation of k-mesh.
Space group operators:
 irot       det(A)        alpha          n_x          n_y          n_z        tau_x        tau_y        tau_z
    1     1.000000     0.000000     1.000000     0.000000     0.000000     0.000000     0.000000     0.000000
    2     1.000000   120.000000    -0.816558    -0.471345    -0.333266     0.000000     0.000000     0.000000
    3     1.000000   120.000000     0.816558     0.471345     0.333266     0.000000     0.000000     0.000000
    4    -1.000000   180.000000    -0.000000     0.577321    -0.816517     0.500172     0.500172     0.500172
    5    -1.000000   180.000000    -0.499924     0.866069    -0.000000     0.500172     0.500172     0.500172
    6    -1.000000   179.999999    -0.499924     0.288748     0.816517     0.500172     0.500172     0.500172
 
 Subroutine IBZKPT returns following result:
 ===========================================
 
 Found     65 irreducible k-points:
 
 Following reciprocal coordinates:
            Coordinates               Weight
  0.000000  0.000000  0.000000      1.000000
  0.125000 -0.000000  0.000000      6.000000
  0.250000 -0.000000  0.000000      6.000000
  0.375000 -0.000000 -0.000000      6.000000
  0.500000 -0.000000  0.000000      3.000000
  0.125000  0.125000  0.000000      6.000000
  0.250000  0.125000  0.000000     12.000000
  0.375000  0.125000 -0.000000     12.000000
  0.500000  0.125000 -0.000000     12.000000
 -0.375000  0.125000  0.000000     12.000000
 -0.250000  0.125000  0.000000     12.000000
 -0.125000  0.125000  0.000000      6.000000
  0.250000  0.250000  0.000000      6.000000
  0.375000  0.250000  0.000000     12.000000
  0.500000  0.250000  0.000000     12.000000
 -0.375000  0.250000  0.000000     12.000000
 -0.250000  0.250000  0.000000      6.000000
  0.375000  0.375000 -0.000000      6.000000
  0.500000  0.375000  0.000000     12.000000
 -0.375000  0.375000  0.000000      6.000000
  0.500000  0.500000  0.000000      3.000000
  0.125000  0.125000  0.125000      2.000000
  0.250000  0.125000  0.125000      6.000000
  0.375000  0.125000  0.125000      6.000000
  0.500000  0.125000  0.125000      6.000000
 -0.375000  0.125000  0.125000      6.000000
 -0.250000  0.125000  0.125000      6.000000
 -0.125000  0.125000  0.125000      6.000000
  0.250000  0.250000  0.125000      6.000000
  0.375000  0.250000  0.125000     12.000000
  0.500000  0.250000  0.125000     12.000000
 -0.375000  0.250000  0.125000     12.000000
 -0.250000  0.250000  0.125000     12.000000
 -0.125000  0.250000  0.125000     12.000000
  0.375000  0.375000  0.125000      6.000000
  0.500000  0.375000  0.125000     12.000000
 -0.375000  0.375000  0.125000     12.000000
 -0.250000  0.375000  0.125000     12.000000
 -0.125000  0.375000  0.125000     12.000000
  0.500000  0.500000  0.125000      6.000000
 -0.375000  0.500000  0.125000     12.000000
 -0.250000  0.500000  0.125000     12.000000
 -0.125000  0.500000  0.125000      6.000000
 -0.375000 -0.375000  0.125000      6.000000
 -0.250000 -0.375000  0.125000     12.000000
 -0.250000 -0.250000  0.125000      6.000000
  0.250000  0.250000  0.250000      2.000000
  0.375000  0.250000  0.250000      6.000000
  0.500000  0.250000  0.250000      6.000000
 -0.375000  0.250000  0.250000      6.000000
 -0.250000  0.250000  0.250000      6.000000
  0.375000  0.375000  0.250000      6.000000
  0.500000  0.375000  0.250000     12.000000
 -0.375000  0.375000  0.250000     12.000000
 -0.250000  0.375000  0.250000     12.000000
  0.500000  0.500000  0.250000      6.000000
 -0.375000  0.500000  0.250000     12.000000
 -0.250000  0.500000  0.250000      6.000000
 -0.375000 -0.375000  0.250000      6.000000
  0.375000  0.375000  0.375000      2.000000
  0.500000  0.375000  0.375000      6.000000
 -0.375000  0.375000  0.375000      6.000000
  0.500000  0.500000  0.375000      6.000000
 -0.375000  0.500000  0.375000      6.000000
  0.500000  0.500000  0.500000      1.000000
 
 Following cartesian coordinates:
            Coordinates               Weight
  0.000000  0.000000  0.000000      1.000000
  0.022671 -0.013150 -0.009297      6.000000
  0.045342 -0.026299 -0.018595      6.000000
  0.068012 -0.039449 -0.027892      6.000000
  0.090683 -0.052598 -0.037190      3.000000
  0.022623  0.013059 -0.018595      6.000000
  0.045294 -0.000091 -0.027892     12.000000
  0.067964 -0.013240 -0.037190     12.000000
  0.090635 -0.026390 -0.046487     12.000000
 -0.068060  0.065657  0.018595     12.000000
 -0.045389  0.052507  0.009297     12.000000
 -0.022719  0.039358 -0.000000      6.000000
  0.045246  0.026117 -0.037190      6.000000
  0.067917  0.012968 -0.046487     12.000000
  0.090587 -0.000182 -0.055785     12.000000
 -0.068108  0.091865  0.009297     12.000000
 -0.045437  0.078716 -0.000000      6.000000
  0.067869  0.039176 -0.055785      6.000000
  0.090539  0.026027 -0.065082     12.000000
 -0.068156  0.118073 -0.000000      6.000000
  0.090492  0.052235 -0.074380      3.000000
  0.022575  0.013031  0.009214      2.000000
  0.045246 -0.000119 -0.000084      6.000000
  0.067917 -0.013268 -0.009381      6.000000
  0.090587 -0.026418 -0.018679      6.000000
 -0.068108  0.065629  0.046403      6.000000
 -0.045437  0.052480  0.037106      6.000000
 -0.022767  0.039330  0.027809      6.000000
  0.045198  0.026090 -0.009381      6.000000
  0.067869  0.012940 -0.018679     12.000000
  0.090539 -0.000209 -0.027976     12.000000
 -0.068156  0.091838  0.037106     12.000000
 -0.045485  0.078688  0.027809     12.000000
 -0.022814  0.065538  0.018511     12.000000
  0.067821  0.039148 -0.027976      6.000000
  0.090492  0.025999 -0.037274     12.000000
 -0.068204  0.118046  0.027809     12.000000
 -0.045533  0.104896  0.018511     12.000000
 -0.022862  0.091747  0.009214     12.000000
  0.090444  0.052207 -0.046571      6.000000
 -0.068252  0.144254  0.018511     12.000000
 -0.045581  0.131105  0.009214     12.000000
 -0.022910  0.117955 -0.000084      6.000000
 -0.067917 -0.039204  0.083593      6.000000
 -0.045246 -0.052353  0.074296     12.000000
 -0.045294 -0.026145  0.064998      6.000000
  0.045150  0.026062  0.018427      2.000000
  0.067821  0.012913  0.009130      6.000000
  0.090492 -0.000237 -0.000168      6.000000
 -0.068204  0.091810  0.064915      6.000000
 -0.045533  0.078660  0.055617      6.000000
  0.067773  0.039121 -0.000168      6.000000
  0.090444  0.025971 -0.009465     12.000000
 -0.068252  0.118018  0.055617     12.000000
 -0.045581  0.104869  0.046320     12.000000
  0.090396  0.052180 -0.018762      6.000000
 -0.068300  0.144226  0.046320     12.000000
 -0.045629  0.131077  0.037022      6.000000
 -0.067964 -0.039231  0.111402      6.000000
  0.067725  0.039093  0.027641      2.000000
  0.090396  0.025944  0.018344      6.000000
 -0.068300  0.117991  0.083426      6.000000
  0.090348  0.052152  0.009046      6.000000
 -0.068348  0.144199  0.074128      6.000000
  0.090300  0.052124  0.036855      1.000000
 
 
 Subroutine IBZKPT_HF returns following result:
 ==============================================
 
 Found    512 k-points in 1st BZ
 the following    512 k-points will be used (e.g. in the exchange kernel)
 Following reciprocal coordinates:   # in IRBZ
  0.000000  0.000000  0.000000    0.00195312   1 t-inv F
  0.125000 -0.000000  0.000000    0.00195312   2 t-inv F
  0.250000 -0.000000  0.000000    0.00195312   3 t-inv F
  0.375000 -0.000000 -0.000000    0.00195312   4 t-inv F
  0.500000 -0.000000  0.000000    0.00195312   5 t-inv F
  0.125000  0.125000  0.000000    0.00195312   6 t-inv F
  0.250000  0.125000  0.000000    0.00195312   7 t-inv F
  0.375000  0.125000 -0.000000    0.00195312   8 t-inv F
  0.500000  0.125000 -0.000000    0.00195312   9 t-inv F
 -0.375000  0.125000  0.000000    0.00195312  10 t-inv F
 -0.250000  0.125000  0.000000    0.00195312  11 t-inv F
 -0.125000  0.125000  0.000000    0.00195312  12 t-inv F
  0.250000  0.250000  0.000000    0.00195312  13 t-inv F
  0.375000  0.250000  0.000000    0.00195312  14 t-inv F
  0.500000  0.250000  0.000000    0.00195312  15 t-inv F
 -0.375000  0.250000  0.000000    0.00195312  16 t-inv F
 -0.250000  0.250000  0.000000    0.00195312  17 t-inv F
  0.375000  0.375000 -0.000000    0.00195312  18 t-inv F
  0.500000  0.375000  0.000000    0.00195312  19 t-inv F
 -0.375000  0.375000  0.000000    0.00195312  20 t-inv F
  0.500000  0.500000  0.000000    0.00195312  21 t-inv F
  0.125000  0.125000  0.125000    0.00195312  22 t-inv F
  0.250000  0.125000  0.125000    0.00195312  23 t-inv F
  0.375000  0.125000  0.125000    0.00195312  24 t-inv F
  0.500000  0.125000  0.125000    0.00195312  25 t-inv F
 -0.375000  0.125000  0.125000    0.00195312  26 t-inv F
 -0.250000  0.125000  0.125000    0.00195312  27 t-inv F
 -0.125000  0.125000  0.125000    0.00195312  28 t-inv F
  0.250000  0.250000  0.125000    0.00195312  29 t-inv F
  0.375000  0.250000  0.125000    0.00195312  30 t-inv F
  0.500000  0.250000  0.125000    0.00195312  31 t-inv F
 -0.375000  0.250000  0.125000    0.00195312  32 t-inv F
 -0.250000  0.250000  0.125000    0.00195312  33 t-inv F
 -0.125000  0.250000  0.125000    0.00195312  34 t-inv F
  0.375000  0.375000  0.125000    0.00195312  35 t-inv F
  0.500000  0.375000  0.125000    0.00195312  36 t-inv F
 -0.375000  0.375000  0.125000    0.00195312  37 t-inv F
 -0.250000  0.375000  0.125000    0.00195312  38 t-inv F
 -0.125000  0.375000  0.125000    0.00195312  39 t-inv F
  0.500000  0.500000  0.125000    0.00195312  40 t-inv F
 -0.375000  0.500000  0.125000    0.00195312  41 t-inv F
 -0.250000  0.500000  0.125000    0.00195312  42 t-inv F
 -0.125000  0.500000  0.125000    0.00195312  43 t-inv F
 -0.375000 -0.375000  0.125000    0.00195312  44 t-inv F
 -0.250000 -0.375000  0.125000    0.00195312  45 t-inv F
 -0.250000 -0.250000  0.125000    0.00195312  46 t-inv F
  0.250000  0.250000  0.250000    0.00195312  47 t-inv F
  0.375000  0.250000  0.250000    0.00195312  48 t-inv F
  0.500000  0.250000  0.250000    0.00195312  49 t-inv F
 -0.375000  0.250000  0.250000    0.00195312  50 t-inv F
 -0.250000  0.250000  0.250000    0.00195312  51 t-inv F
  0.375000  0.375000  0.250000    0.00195312  52 t-inv F
  0.500000  0.375000  0.250000    0.00195312  53 t-inv F
 -0.375000  0.375000  0.250000    0.00195312  54 t-inv F
 -0.250000  0.375000  0.250000    0.00195312  55 t-inv F
  0.500000  0.500000  0.250000    0.00195312  56 t-inv F
 -0.375000  0.500000  0.250000    0.00195312  57 t-inv F
 -0.250000  0.500000  0.250000    0.00195312  58 t-inv F
 -0.375000 -0.375000  0.250000    0.00195312  59 t-inv F
  0.375000  0.375000  0.375000    0.00195312  60 t-inv F
  0.500000  0.375000  0.375000    0.00195312  61 t-inv F
 -0.375000  0.375000  0.375000    0.00195312  62 t-inv F
  0.500000  0.500000  0.375000    0.00195312  63 t-inv F
 -0.375000  0.500000  0.375000    0.00195312  64 t-inv F
  0.500000  0.500000  0.500000    0.00195312  65 t-inv F
  0.000000  0.125000 -0.000000    0.00195312   2 t-inv F
 -0.000000  0.000000  0.125000    0.00195312   2 t-inv F
  0.000000  0.250000 -0.000000    0.00195312   3 t-inv F
 -0.000000  0.000000  0.250000    0.00195312   3 t-inv F
 -0.000000  0.375000 -0.000000    0.00195312   4 t-inv F
 -0.000000 -0.000000  0.375000    0.00195312   4 t-inv F
  0.000000  0.500000 -0.000000    0.00195312   5 t-inv F
 -0.000000  0.000000  0.500000    0.00195312   5 t-inv F
  0.000000  0.125000  0.125000    0.00195312   6 t-inv F
  0.125000  0.000000  0.125000    0.00195312   6 t-inv F
  0.000000  0.250000  0.125000    0.00195312   7 t-inv F
  0.125000  0.000000  0.250000    0.00195312   7 t-inv F
  0.250000  0.000000  0.125000    0.00195312   7 t-inv F spinflp
  0.125000  0.250000  0.000000    0.00195312   7 t-inv F spinflp
  0.000000  0.125000  0.250000    0.00195312   7 t-inv F spinflp
 -0.000000  0.375000  0.125000    0.00195312   8 t-inv F
  0.125000 -0.000000  0.375000    0.00195312   8 t-inv F
  0.375000 -0.000000  0.125000    0.00195312   8 t-inv F spinflp
  0.125000  0.375000 -0.000000    0.00195312   8 t-inv F spinflp
 -0.000000  0.125000  0.375000    0.00195312   8 t-inv F spinflp
 -0.000000  0.500000  0.125000    0.00195312   9 t-inv F
  0.125000 -0.000000  0.500000    0.00195312   9 t-inv F
  0.500000 -0.000000  0.125000    0.00195312   9 t-inv F spinflp
  0.125000  0.500000 -0.000000    0.00195312   9 t-inv F spinflp
 -0.000000  0.125000  0.500000    0.00195312   9 t-inv F spinflp
  0.000000 -0.375000  0.125000    0.00195312  10 t-inv F
  0.125000  0.000000 -0.375000    0.00195312  10 t-inv F
 -0.375000  0.000000  0.125000    0.00195312  10 t-inv F spinflp
  0.125000 -0.375000  0.000000    0.00195312  10 t-inv F spinflp
  0.000000  0.125000 -0.375000    0.00195312  10 t-inv F spinflp
  0.000000 -0.250000  0.125000    0.00195312  11 t-inv F
  0.125000  0.000000 -0.250000    0.00195312  11 t-inv F
 -0.250000  0.000000  0.125000    0.00195312  11 t-inv F spinflp
  0.125000 -0.250000  0.000000    0.00195312  11 t-inv F spinflp
  0.000000  0.125000 -0.250000    0.00195312  11 t-inv F spinflp
  0.000000 -0.125000  0.125000    0.00195312  12 t-inv F
  0.125000  0.000000 -0.125000    0.00195312  12 t-inv F
 -0.125000  0.000000  0.125000    0.00195312  12 t-inv F spinflp
  0.125000 -0.125000  0.000000    0.00195312  12 t-inv F spinflp
  0.000000  0.125000 -0.125000    0.00195312  12 t-inv F spinflp
  0.000000  0.250000  0.250000    0.00195312  13 t-inv F
  0.250000  0.000000  0.250000    0.00195312  13 t-inv F
  0.000000  0.375000  0.250000    0.00195312  14 t-inv F
  0.250000  0.000000  0.375000    0.00195312  14 t-inv F
  0.375000  0.000000  0.250000    0.00195312  14 t-inv F spinflp
  0.250000  0.375000  0.000000    0.00195312  14 t-inv F spinflp
  0.000000  0.250000  0.375000    0.00195312  14 t-inv F spinflp
  0.000000  0.500000  0.250000    0.00195312  15 t-inv F
  0.250000  0.000000  0.500000    0.00195312  15 t-inv F
  0.500000  0.000000  0.250000    0.00195312  15 t-inv F spinflp
  0.250000  0.500000  0.000000    0.00195312  15 t-inv F spinflp
  0.000000  0.250000  0.500000    0.00195312  15 t-inv F spinflp
  0.000000 -0.375000  0.250000    0.00195312  16 t-inv F
  0.250000  0.000000 -0.375000    0.00195312  16 t-inv F
 -0.375000  0.000000  0.250000    0.00195312  16 t-inv F spinflp
  0.250000 -0.375000  0.000000    0.00195312  16 t-inv F spinflp
  0.000000  0.250000 -0.375000    0.00195312  16 t-inv F spinflp
  0.000000 -0.250000  0.250000    0.00195312  17 t-inv F
  0.250000  0.000000 -0.250000    0.00195312  17 t-inv F
 -0.250000  0.000000  0.250000    0.00195312  17 t-inv F spinflp
  0.250000 -0.250000  0.000000    0.00195312  17 t-inv F spinflp
  0.000000  0.250000 -0.250000    0.00195312  17 t-inv F spinflp
 -0.000000  0.375000  0.375000    0.00195312  18 t-inv F
  0.375000 -0.000000  0.375000    0.00195312  18 t-inv F
  0.000000  0.500000  0.375000    0.00195312  19 t-inv F
  0.375000  0.000000  0.500000    0.00195312  19 t-inv F
  0.500000  0.000000  0.375000    0.00195312  19 t-inv F spinflp
  0.375000  0.500000  0.000000    0.00195312  19 t-inv F spinflp
  0.000000  0.375000  0.500000    0.00195312  19 t-inv F spinflp
  0.000000 -0.375000  0.375000    0.00195312  20 t-inv F
  0.375000  0.000000 -0.375000    0.00195312  20 t-inv F
 -0.375000  0.000000  0.375000    0.00195312  20 t-inv F spinflp
  0.375000 -0.375000  0.000000    0.00195312  20 t-inv F spinflp
  0.000000  0.375000 -0.375000    0.00195312  20 t-inv F spinflp
  0.000000  0.500000  0.500000    0.00195312  21 t-inv F
  0.500000  0.000000  0.500000    0.00195312  21 t-inv F
  0.125000  0.250000  0.125000    0.00195312  23 t-inv F
  0.125000  0.125000  0.250000    0.00195312  23 t-inv F
  0.125000  0.375000  0.125000    0.00195312  24 t-inv F
  0.125000  0.125000  0.375000    0.00195312  24 t-inv F
  0.125000  0.500000  0.125000    0.00195312  25 t-inv F
  0.125000  0.125000  0.500000    0.00195312  25 t-inv F
  0.125000 -0.375000  0.125000    0.00195312  26 t-inv F
  0.125000  0.125000 -0.375000    0.00195312  26 t-inv F
  0.125000 -0.250000  0.125000    0.00195312  27 t-inv F
  0.125000  0.125000 -0.250000    0.00195312  27 t-inv F
  0.125000 -0.125000  0.125000    0.00195312  28 t-inv F
  0.125000  0.125000 -0.125000    0.00195312  28 t-inv F
  0.125000  0.250000  0.250000    0.00195312  29 t-inv F
  0.250000  0.125000  0.250000    0.00195312  29 t-inv F
  0.125000  0.375000  0.250000    0.00195312  30 t-inv F
  0.250000  0.125000  0.375000    0.00195312  30 t-inv F
  0.375000  0.125000  0.250000    0.00195312  30 t-inv F spinflp
  0.250000  0.375000  0.125000    0.00195312  30 t-inv F spinflp
  0.125000  0.250000  0.375000    0.00195312  30 t-inv F spinflp
  0.125000  0.500000  0.250000    0.00195312  31 t-inv F
  0.250000  0.125000  0.500000    0.00195312  31 t-inv F
  0.500000  0.125000  0.250000    0.00195312  31 t-inv F spinflp
  0.250000  0.500000  0.125000    0.00195312  31 t-inv F spinflp
  0.125000  0.250000  0.500000    0.00195312  31 t-inv F spinflp
  0.125000 -0.375000  0.250000    0.00195312  32 t-inv F
  0.250000  0.125000 -0.375000    0.00195312  32 t-inv F
 -0.375000  0.125000  0.250000    0.00195312  32 t-inv F spinflp
  0.250000 -0.375000  0.125000    0.00195312  32 t-inv F spinflp
  0.125000  0.250000 -0.375000    0.00195312  32 t-inv F spinflp
  0.125000 -0.250000  0.250000    0.00195312  33 t-inv F
  0.250000  0.125000 -0.250000    0.00195312  33 t-inv F
 -0.250000  0.125000  0.250000    0.00195312  33 t-inv F spinflp
  0.250000 -0.250000  0.125000    0.00195312  33 t-inv F spinflp
  0.125000  0.250000 -0.250000    0.00195312  33 t-inv F spinflp
  0.125000 -0.125000  0.250000    0.00195312  34 t-inv F
  0.250000  0.125000 -0.125000    0.00195312  34 t-inv F
 -0.125000  0.125000  0.250000    0.00195312  34 t-inv F spinflp
  0.250000 -0.125000  0.125000    0.00195312  34 t-inv F spinflp
  0.125000  0.250000 -0.125000    0.00195312  34 t-inv F spinflp
  0.125000  0.375000  0.375000    0.00195312  35 t-inv F
  0.375000  0.125000  0.375000    0.00195312  35 t-inv F
  0.125000  0.500000  0.375000    0.00195312  36 t-inv F
  0.375000  0.125000  0.500000    0.00195312  36 t-inv F
  0.500000  0.125000  0.375000    0.00195312  36 t-inv F spinflp
  0.375000  0.500000  0.125000    0.00195312  36 t-inv F spinflp
  0.125000  0.375000  0.500000    0.00195312  36 t-inv F spinflp
  0.125000 -0.375000  0.375000    0.00195312  37 t-inv F
  0.375000  0.125000 -0.375000    0.00195312  37 t-inv F
 -0.375000  0.125000  0.375000    0.00195312  37 t-inv F spinflp
  0.375000 -0.375000  0.125000    0.00195312  37 t-inv F spinflp
  0.125000  0.375000 -0.375000    0.00195312  37 t-inv F spinflp
  0.125000 -0.250000  0.375000    0.00195312  38 t-inv F
  0.375000  0.125000 -0.250000    0.00195312  38 t-inv F
 -0.250000  0.125000  0.375000    0.00195312  38 t-inv F spinflp
  0.375000 -0.250000  0.125000    0.00195312  38 t-inv F spinflp
  0.125000  0.375000 -0.250000    0.00195312  38 t-inv F spinflp
  0.125000 -0.125000  0.375000    0.00195312  39 t-inv F
  0.375000  0.125000 -0.125000    0.00195312  39 t-inv F
 -0.125000  0.125000  0.375000    0.00195312  39 t-inv F spinflp
  0.375000 -0.125000  0.125000    0.00195312  39 t-inv F spinflp
  0.125000  0.375000 -0.125000    0.00195312  39 t-inv F spinflp
  0.125000  0.500000  0.500000    0.00195312  40 t-inv F
  0.500000  0.125000  0.500000    0.00195312  40 t-inv F
  0.125000 -0.375000  0.500000    0.00195312  41 t-inv F
  0.500000  0.125000 -0.375000    0.00195312  41 t-inv F
 -0.375000  0.125000  0.500000    0.00195312  41 t-inv F spinflp
  0.500000 -0.375000  0.125000    0.00195312  41 t-inv F spinflp
  0.125000  0.500000 -0.375000    0.00195312  41 t-inv F spinflp
  0.125000 -0.250000  0.500000    0.00195312  42 t-inv F
  0.500000  0.125000 -0.250000    0.00195312  42 t-inv F
 -0.250000  0.125000  0.500000    0.00195312  42 t-inv F spinflp
  0.500000 -0.250000  0.125000    0.00195312  42 t-inv F spinflp
  0.125000  0.500000 -0.250000    0.00195312  42 t-inv F spinflp
  0.125000 -0.125000  0.500000    0.00195312  43 t-inv F
  0.500000  0.125000 -0.125000    0.00195312  43 t-inv F
 -0.125000  0.125000  0.500000    0.00195312  43 t-inv F spinflp
  0.500000 -0.125000  0.125000    0.00195312  43 t-inv F spinflp
  0.125000  0.500000 -0.125000    0.00195312  43 t-inv F spinflp
  0.125000 -0.375000 -0.375000    0.00195312  44 t-inv F
 -0.375000  0.125000 -0.375000    0.00195312  44 t-inv F
  0.125000 -0.250000 -0.375000    0.00195312  45 t-inv F
 -0.375000  0.125000 -0.250000    0.00195312  45 t-inv F
 -0.250000  0.125000 -0.375000    0.00195312  45 t-inv F spinflp
 -0.375000 -0.250000  0.125000    0.00195312  45 t-inv F spinflp
  0.125000 -0.375000 -0.250000    0.00195312  45 t-inv F spinflp
  0.125000 -0.250000 -0.250000    0.00195312  46 t-inv F
 -0.250000  0.125000 -0.250000    0.00195312  46 t-inv F
  0.250000  0.375000  0.250000    0.00195312  48 t-inv F
  0.250000  0.250000  0.375000    0.00195312  48 t-inv F
  0.250000  0.500000  0.250000    0.00195312  49 t-inv F
  0.250000  0.250000  0.500000    0.00195312  49 t-inv F
  0.250000 -0.375000  0.250000    0.00195312  50 t-inv F
  0.250000  0.250000 -0.375000    0.00195312  50 t-inv F
  0.250000 -0.250000  0.250000    0.00195312  51 t-inv F
  0.250000  0.250000 -0.250000    0.00195312  51 t-inv F
  0.250000  0.375000  0.375000    0.00195312  52 t-inv F
  0.375000  0.250000  0.375000    0.00195312  52 t-inv F
  0.250000  0.500000  0.375000    0.00195312  53 t-inv F
  0.375000  0.250000  0.500000    0.00195312  53 t-inv F
  0.500000  0.250000  0.375000    0.00195312  53 t-inv F spinflp
  0.375000  0.500000  0.250000    0.00195312  53 t-inv F spinflp
  0.250000  0.375000  0.500000    0.00195312  53 t-inv F spinflp
  0.250000 -0.375000  0.375000    0.00195312  54 t-inv F
  0.375000  0.250000 -0.375000    0.00195312  54 t-inv F
 -0.375000  0.250000  0.375000    0.00195312  54 t-inv F spinflp
  0.375000 -0.375000  0.250000    0.00195312  54 t-inv F spinflp
  0.250000  0.375000 -0.375000    0.00195312  54 t-inv F spinflp
  0.250000 -0.250000  0.375000    0.00195312  55 t-inv F
  0.375000  0.250000 -0.250000    0.00195312  55 t-inv F
 -0.250000  0.250000  0.375000    0.00195312  55 t-inv F spinflp
  0.375000 -0.250000  0.250000    0.00195312  55 t-inv F spinflp
  0.250000  0.375000 -0.250000    0.00195312  55 t-inv F spinflp
  0.250000  0.500000  0.500000    0.00195312  56 t-inv F
  0.500000  0.250000  0.500000    0.00195312  56 t-inv F
  0.250000 -0.375000  0.500000    0.00195312  57 t-inv F
  0.500000  0.250000 -0.375000    0.00195312  57 t-inv F
 -0.375000  0.250000  0.500000    0.00195312  57 t-inv F spinflp
  0.500000 -0.375000  0.250000    0.00195312  57 t-inv F spinflp
  0.250000  0.500000 -0.375000    0.00195312  57 t-inv F spinflp
  0.250000 -0.250000  0.500000    0.00195312  58 t-inv F
  0.500000  0.250000 -0.250000    0.00195312  58 t-inv F
 -0.250000  0.250000  0.500000    0.00195312  58 t-inv F spinflp
  0.500000 -0.250000  0.250000    0.00195312  58 t-inv F spinflp
  0.250000  0.500000 -0.250000    0.00195312  58 t-inv F spinflp
  0.250000 -0.375000 -0.375000    0.00195312  59 t-inv F
 -0.375000  0.250000 -0.375000    0.00195312  59 t-inv F
  0.375000  0.500000  0.375000    0.00195312  61 t-inv F
  0.375000  0.375000  0.500000    0.00195312  61 t-inv F
  0.375000 -0.375000  0.375000    0.00195312  62 t-inv F
  0.375000  0.375000 -0.375000    0.00195312  62 t-inv F
  0.375000  0.500000  0.500000    0.00195312  63 t-inv F
  0.500000  0.375000  0.500000    0.00195312  63 t-inv F
  0.375000 -0.375000  0.500000    0.00195312  64 t-inv F
  0.500000  0.375000 -0.375000    0.00195312  64 t-inv F
 -0.375000  0.375000  0.500000    0.00195312  64 t-inv F spinflp
  0.500000 -0.375000  0.375000    0.00195312  64 t-inv F spinflp
  0.375000  0.500000 -0.375000    0.00195312  64 t-inv F spinflp
 -0.125000  0.000000  0.000000    0.00195312   2 t-inv T
  0.000000 -0.125000  0.000000    0.00195312   2 t-inv T
  0.000000  0.000000 -0.125000    0.00195312   2 t-inv T
 -0.250000  0.000000  0.000000    0.00195312   3 t-inv T
  0.000000 -0.250000  0.000000    0.00195312   3 t-inv T
  0.000000  0.000000 -0.250000    0.00195312   3 t-inv T
 -0.375000  0.000000  0.000000    0.00195312   4 t-inv T
  0.000000 -0.375000  0.000000    0.00195312   4 t-inv T
  0.000000  0.000000 -0.375000    0.00195312   4 t-inv T
 -0.125000 -0.125000  0.000000    0.00195312   6 t-inv T
  0.000000 -0.125000 -0.125000    0.00195312   6 t-inv T
 -0.125000  0.000000 -0.125000    0.00195312   6 t-inv T
 -0.250000 -0.125000  0.000000    0.00195312   7 t-inv T
  0.000000 -0.250000 -0.125000    0.00195312   7 t-inv T
 -0.125000  0.000000 -0.250000    0.00195312   7 t-inv T
 -0.250000  0.000000 -0.125000    0.00195312   7 t-inv T spinflp
 -0.125000 -0.250000  0.000000    0.00195312   7 t-inv T spinflp
  0.000000 -0.125000 -0.250000    0.00195312   7 t-inv T spinflp
 -0.375000 -0.125000  0.000000    0.00195312   8 t-inv T
  0.000000 -0.375000 -0.125000    0.00195312   8 t-inv T
 -0.125000  0.000000 -0.375000    0.00195312   8 t-inv T
 -0.375000  0.000000 -0.125000    0.00195312   8 t-inv T spinflp
 -0.125000 -0.375000  0.000000    0.00195312   8 t-inv T spinflp
  0.000000 -0.125000 -0.375000    0.00195312   8 t-inv T spinflp
 -0.500000 -0.125000  0.000000    0.00195312   9 t-inv T
  0.000000 -0.500000 -0.125000    0.00195312   9 t-inv T
 -0.125000  0.000000 -0.500000    0.00195312   9 t-inv T
 -0.500000  0.000000 -0.125000    0.00195312   9 t-inv T spinflp
 -0.125000 -0.500000  0.000000    0.00195312   9 t-inv T spinflp
  0.000000 -0.125000 -0.500000    0.00195312   9 t-inv T spinflp
  0.375000 -0.125000 -0.000000    0.00195312  10 t-inv T
 -0.000000  0.375000 -0.125000    0.00195312  10 t-inv T
 -0.125000 -0.000000  0.375000    0.00195312  10 t-inv T
  0.375000 -0.000000 -0.125000    0.00195312  10 t-inv T spinflp
 -0.125000  0.375000 -0.000000    0.00195312  10 t-inv T spinflp
 -0.000000 -0.125000  0.375000    0.00195312  10 t-inv T spinflp
  0.250000 -0.125000 -0.000000    0.00195312  11 t-inv T
 -0.000000  0.250000 -0.125000    0.00195312  11 t-inv T
 -0.125000 -0.000000  0.250000    0.00195312  11 t-inv T
  0.250000 -0.000000 -0.125000    0.00195312  11 t-inv T spinflp
 -0.125000  0.250000 -0.000000    0.00195312  11 t-inv T spinflp
 -0.000000 -0.125000  0.250000    0.00195312  11 t-inv T spinflp
 -0.250000 -0.250000  0.000000    0.00195312  13 t-inv T
  0.000000 -0.250000 -0.250000    0.00195312  13 t-inv T
 -0.250000  0.000000 -0.250000    0.00195312  13 t-inv T
 -0.375000 -0.250000 -0.000000    0.00195312  14 t-inv T
 -0.000000 -0.375000 -0.250000    0.00195312  14 t-inv T
 -0.250000 -0.000000 -0.375000    0.00195312  14 t-inv T
 -0.375000 -0.000000 -0.250000    0.00195312  14 t-inv T spinflp
 -0.250000 -0.375000 -0.000000    0.00195312  14 t-inv T spinflp
 -0.000000 -0.250000 -0.375000    0.00195312  14 t-inv T spinflp
 -0.500000 -0.250000  0.000000    0.00195312  15 t-inv T
  0.000000 -0.500000 -0.250000    0.00195312  15 t-inv T
 -0.250000  0.000000 -0.500000    0.00195312  15 t-inv T
 -0.500000  0.000000 -0.250000    0.00195312  15 t-inv T spinflp
 -0.250000 -0.500000  0.000000    0.00195312  15 t-inv T spinflp
  0.000000 -0.250000 -0.500000    0.00195312  15 t-inv T spinflp
  0.375000 -0.250000 -0.000000    0.00195312  16 t-inv T
 -0.000000  0.375000 -0.250000    0.00195312  16 t-inv T
 -0.250000 -0.000000  0.375000    0.00195312  16 t-inv T
  0.375000 -0.000000 -0.250000    0.00195312  16 t-inv T spinflp
 -0.250000  0.375000 -0.000000    0.00195312  16 t-inv T spinflp
 -0.000000 -0.250000  0.375000    0.00195312  16 t-inv T spinflp
 -0.375000 -0.375000  0.000000    0.00195312  18 t-inv T
  0.000000 -0.375000 -0.375000    0.00195312  18 t-inv T
 -0.375000  0.000000 -0.375000    0.00195312  18 t-inv T
 -0.500000 -0.375000  0.000000    0.00195312  19 t-inv T
  0.000000 -0.500000 -0.375000    0.00195312  19 t-inv T
 -0.375000  0.000000 -0.500000    0.00195312  19 t-inv T
 -0.500000  0.000000 -0.375000    0.00195312  19 t-inv T spinflp
 -0.375000 -0.500000  0.000000    0.00195312  19 t-inv T spinflp
  0.000000 -0.375000 -0.500000    0.00195312  19 t-inv T spinflp
 -0.125000 -0.125000 -0.125000    0.00195312  22 t-inv T
 -0.250000 -0.125000 -0.125000    0.00195312  23 t-inv T
 -0.125000 -0.250000 -0.125000    0.00195312  23 t-inv T
 -0.125000 -0.125000 -0.250000    0.00195312  23 t-inv T
 -0.375000 -0.125000 -0.125000    0.00195312  24 t-inv T
 -0.125000 -0.375000 -0.125000    0.00195312  24 t-inv T
 -0.125000 -0.125000 -0.375000    0.00195312  24 t-inv T
 -0.500000 -0.125000 -0.125000    0.00195312  25 t-inv T
 -0.125000 -0.500000 -0.125000    0.00195312  25 t-inv T
 -0.125000 -0.125000 -0.500000    0.00195312  25 t-inv T
  0.375000 -0.125000 -0.125000    0.00195312  26 t-inv T
 -0.125000  0.375000 -0.125000    0.00195312  26 t-inv T
 -0.125000 -0.125000  0.375000    0.00195312  26 t-inv T
  0.250000 -0.125000 -0.125000    0.00195312  27 t-inv T
 -0.125000  0.250000 -0.125000    0.00195312  27 t-inv T
 -0.125000 -0.125000  0.250000    0.00195312  27 t-inv T
  0.125000 -0.125000 -0.125000    0.00195312  28 t-inv T
 -0.125000  0.125000 -0.125000    0.00195312  28 t-inv T
 -0.125000 -0.125000  0.125000    0.00195312  28 t-inv T
 -0.250000 -0.250000 -0.125000    0.00195312  29 t-inv T
 -0.125000 -0.250000 -0.250000    0.00195312  29 t-inv T
 -0.250000 -0.125000 -0.250000    0.00195312  29 t-inv T
 -0.375000 -0.250000 -0.125000    0.00195312  30 t-inv T
 -0.125000 -0.375000 -0.250000    0.00195312  30 t-inv T
 -0.250000 -0.125000 -0.375000    0.00195312  30 t-inv T
 -0.375000 -0.125000 -0.250000    0.00195312  30 t-inv T spinflp
 -0.250000 -0.375000 -0.125000    0.00195312  30 t-inv T spinflp
 -0.125000 -0.250000 -0.375000    0.00195312  30 t-inv T spinflp
 -0.500000 -0.250000 -0.125000    0.00195312  31 t-inv T
 -0.125000 -0.500000 -0.250000    0.00195312  31 t-inv T
 -0.250000 -0.125000 -0.500000    0.00195312  31 t-inv T
 -0.500000 -0.125000 -0.250000    0.00195312  31 t-inv T spinflp
 -0.250000 -0.500000 -0.125000    0.00195312  31 t-inv T spinflp
 -0.125000 -0.250000 -0.500000    0.00195312  31 t-inv T spinflp
  0.375000 -0.250000 -0.125000    0.00195312  32 t-inv T
 -0.125000  0.375000 -0.250000    0.00195312  32 t-inv T
 -0.250000 -0.125000  0.375000    0.00195312  32 t-inv T
  0.375000 -0.125000 -0.250000    0.00195312  32 t-inv T spinflp
 -0.250000  0.375000 -0.125000    0.00195312  32 t-inv T spinflp
 -0.125000 -0.250000  0.375000    0.00195312  32 t-inv T spinflp
  0.250000 -0.250000 -0.125000    0.00195312  33 t-inv T
 -0.125000  0.250000 -0.250000    0.00195312  33 t-inv T
 -0.250000 -0.125000  0.250000    0.00195312  33 t-inv T
  0.250000 -0.125000 -0.250000    0.00195312  33 t-inv T spinflp
 -0.250000  0.250000 -0.125000    0.00195312  33 t-inv T spinflp
 -0.125000 -0.250000  0.250000    0.00195312  33 t-inv T spinflp
  0.125000 -0.250000 -0.125000    0.00195312  34 t-inv T
 -0.125000  0.125000 -0.250000    0.00195312  34 t-inv T
 -0.250000 -0.125000  0.125000    0.00195312  34 t-inv T
  0.125000 -0.125000 -0.250000    0.00195312  34 t-inv T spinflp
 -0.250000  0.125000 -0.125000    0.00195312  34 t-inv T spinflp
 -0.125000 -0.250000  0.125000    0.00195312  34 t-inv T spinflp
 -0.375000 -0.375000 -0.125000    0.00195312  35 t-inv T
 -0.125000 -0.375000 -0.375000    0.00195312  35 t-inv T
 -0.375000 -0.125000 -0.375000    0.00195312  35 t-inv T
 -0.500000 -0.375000 -0.125000    0.00195312  36 t-inv T
 -0.125000 -0.500000 -0.375000    0.00195312  36 t-inv T
 -0.375000 -0.125000 -0.500000    0.00195312  36 t-inv T
 -0.500000 -0.125000 -0.375000    0.00195312  36 t-inv T spinflp
 -0.375000 -0.500000 -0.125000    0.00195312  36 t-inv T spinflp
 -0.125000 -0.375000 -0.500000    0.00195312  36 t-inv T spinflp
  0.375000 -0.375000 -0.125000    0.00195312  37 t-inv T
 -0.125000  0.375000 -0.375000    0.00195312  37 t-inv T
 -0.375000 -0.125000  0.375000    0.00195312  37 t-inv T
  0.375000 -0.125000 -0.375000    0.00195312  37 t-inv T spinflp
 -0.375000  0.375000 -0.125000    0.00195312  37 t-inv T spinflp
 -0.125000 -0.375000  0.375000    0.00195312  37 t-inv T spinflp
  0.250000 -0.375000 -0.125000    0.00195312  38 t-inv T
 -0.125000  0.250000 -0.375000    0.00195312  38 t-inv T
 -0.375000 -0.125000  0.250000    0.00195312  38 t-inv T
  0.250000 -0.125000 -0.375000    0.00195312  38 t-inv T spinflp
 -0.375000  0.250000 -0.125000    0.00195312  38 t-inv T spinflp
 -0.125000 -0.375000  0.250000    0.00195312  38 t-inv T spinflp
  0.125000 -0.375000 -0.125000    0.00195312  39 t-inv T
 -0.125000  0.125000 -0.375000    0.00195312  39 t-inv T
 -0.375000 -0.125000  0.125000    0.00195312  39 t-inv T
  0.125000 -0.125000 -0.375000    0.00195312  39 t-inv T spinflp
 -0.375000  0.125000 -0.125000    0.00195312  39 t-inv T spinflp
 -0.125000 -0.375000  0.125000    0.00195312  39 t-inv T spinflp
 -0.500000 -0.500000 -0.125000    0.00195312  40 t-inv T
 -0.125000 -0.500000 -0.500000    0.00195312  40 t-inv T
 -0.500000 -0.125000 -0.500000    0.00195312  40 t-inv T
  0.375000 -0.500000 -0.125000    0.00195312  41 t-inv T
 -0.125000  0.375000 -0.500000    0.00195312  41 t-inv T
 -0.500000 -0.125000  0.375000    0.00195312  41 t-inv T
  0.375000 -0.125000 -0.500000    0.00195312  41 t-inv T spinflp
 -0.500000  0.375000 -0.125000    0.00195312  41 t-inv T spinflp
 -0.125000 -0.500000  0.375000    0.00195312  41 t-inv T spinflp
  0.250000 -0.500000 -0.125000    0.00195312  42 t-inv T
 -0.125000  0.250000 -0.500000    0.00195312  42 t-inv T
 -0.500000 -0.125000  0.250000    0.00195312  42 t-inv T
  0.250000 -0.125000 -0.500000    0.00195312  42 t-inv T spinflp
 -0.500000  0.250000 -0.125000    0.00195312  42 t-inv T spinflp
 -0.125000 -0.500000  0.250000    0.00195312  42 t-inv T spinflp
  0.375000  0.375000 -0.125000    0.00195312  44 t-inv T
 -0.125000  0.375000  0.375000    0.00195312  44 t-inv T
  0.375000 -0.125000  0.375000    0.00195312  44 t-inv T
  0.250000  0.375000 -0.125000    0.00195312  45 t-inv T
 -0.125000  0.250000  0.375000    0.00195312  45 t-inv T
  0.375000 -0.125000  0.250000    0.00195312  45 t-inv T
  0.250000 -0.125000  0.375000    0.00195312  45 t-inv T spinflp
  0.375000  0.250000 -0.125000    0.00195312  45 t-inv T spinflp
 -0.125000  0.375000  0.250000    0.00195312  45 t-inv T spinflp
  0.250000  0.250000 -0.125000    0.00195312  46 t-inv T
 -0.125000  0.250000  0.250000    0.00195312  46 t-inv T
  0.250000 -0.125000  0.250000    0.00195312  46 t-inv T
 -0.250000 -0.250000 -0.250000    0.00195312  47 t-inv T
 -0.375000 -0.250000 -0.250000    0.00195312  48 t-inv T
 -0.250000 -0.375000 -0.250000    0.00195312  48 t-inv T
 -0.250000 -0.250000 -0.375000    0.00195312  48 t-inv T
 -0.500000 -0.250000 -0.250000    0.00195312  49 t-inv T
 -0.250000 -0.500000 -0.250000    0.00195312  49 t-inv T
 -0.250000 -0.250000 -0.500000    0.00195312  49 t-inv T
  0.375000 -0.250000 -0.250000    0.00195312  50 t-inv T
 -0.250000  0.375000 -0.250000    0.00195312  50 t-inv T
 -0.250000 -0.250000  0.375000    0.00195312  50 t-inv T
  0.250000 -0.250000 -0.250000    0.00195312  51 t-inv T
 -0.250000  0.250000 -0.250000    0.00195312  51 t-inv T
 -0.250000 -0.250000  0.250000    0.00195312  51 t-inv T
 -0.375000 -0.375000 -0.250000    0.00195312  52 t-inv T
 -0.250000 -0.375000 -0.375000    0.00195312  52 t-inv T
 -0.375000 -0.250000 -0.375000    0.00195312  52 t-inv T
 -0.500000 -0.375000 -0.250000    0.00195312  53 t-inv T
 -0.250000 -0.500000 -0.375000    0.00195312  53 t-inv T
 -0.375000 -0.250000 -0.500000    0.00195312  53 t-inv T
 -0.500000 -0.250000 -0.375000    0.00195312  53 t-inv T spinflp
 -0.375000 -0.500000 -0.250000    0.00195312  53 t-inv T spinflp
 -0.250000 -0.375000 -0.500000    0.00195312  53 t-inv T spinflp
  0.375000 -0.375000 -0.250000    0.00195312  54 t-inv T
 -0.250000  0.375000 -0.375000    0.00195312  54 t-inv T
 -0.375000 -0.250000  0.375000    0.00195312  54 t-inv T
  0.375000 -0.250000 -0.375000    0.00195312  54 t-inv T spinflp
 -0.375000  0.375000 -0.250000    0.00195312  54 t-inv T spinflp
 -0.250000 -0.375000  0.375000    0.00195312  54 t-inv T spinflp
  0.250000 -0.375000 -0.250000    0.00195312  55 t-inv T
 -0.250000  0.250000 -0.375000    0.00195312  55 t-inv T
 -0.375000 -0.250000  0.250000    0.00195312  55 t-inv T
  0.250000 -0.250000 -0.375000    0.00195312  55 t-inv T spinflp
 -0.375000  0.250000 -0.250000    0.00195312  55 t-inv T spinflp
 -0.250000 -0.375000  0.250000    0.00195312  55 t-inv T spinflp
 -0.500000 -0.500000 -0.250000    0.00195312  56 t-inv T
 -0.250000 -0.500000 -0.500000    0.00195312  56 t-inv T
 -0.500000 -0.250000 -0.500000    0.00195312  56 t-inv T
  0.375000 -0.500000 -0.250000    0.00195312  57 t-inv T
 -0.250000  0.375000 -0.500000    0.00195312  57 t-inv T
 -0.500000 -0.250000  0.375000    0.00195312  57 t-inv T
  0.375000 -0.250000 -0.500000    0.00195312  57 t-inv T spinflp
 -0.500000  0.375000 -0.250000    0.00195312  57 t-inv T spinflp
 -0.250000 -0.500000  0.375000    0.00195312  57 t-inv T spinflp
  0.375000  0.375000 -0.250000    0.00195312  59 t-inv T
 -0.250000  0.375000  0.375000    0.00195312  59 t-inv T
  0.375000 -0.250000  0.375000    0.00195312  59 t-inv T
 -0.375000 -0.375000 -0.375000    0.00195312  60 t-inv T
 -0.500000 -0.375000 -0.375000    0.00195312  61 t-inv T
 -0.375000 -0.500000 -0.375000    0.00195312  61 t-inv T
 -0.375000 -0.375000 -0.500000    0.00195312  61 t-inv T
  0.375000 -0.375000 -0.375000    0.00195312  62 t-inv T
 -0.375000  0.375000 -0.375000    0.00195312  62 t-inv T
 -0.375000 -0.375000  0.375000    0.00195312  62 t-inv T
 -0.500000 -0.500000 -0.375000    0.00195312  63 t-inv T
 -0.375000 -0.500000 -0.500000    0.00195312  63 t-inv T
 -0.500000 -0.375000 -0.500000    0.00195312  63 t-inv T


--------------------------------------------------------------------------------------------------------




 Dimension of arrays:
   k-points           NKPTS =     65   k-points in BZ     NKDIM =     65   number of bands    NBANDS=     56
   number of dos      NEDOS =    301   number of ions     NIONS =     10
   non local maximal  LDIM  =      6   non local SUM 2l+1 LMDIM =     18
   total plane-waves  NPLWV =  32768
   max r-space proj   IRMAX =      1   max aug-charges    IRDMAX=  12419
   dimension x,y,z NGX =    32 NGY =   32 NGZ =   32
   dimension x,y,z NGXF=    64 NGYF=   64 NGZF=   64
   support grid    NGXF=    64 NGYF=   64 NGZF=   64
   ions per type =               2   6   2
 NGX,Y,Z   is equivalent  to a cutoff of   9.63,  9.63,  9.63 a.u.
 NGXF,Y,Z  is equivalent  to a cutoff of  19.26, 19.26, 19.26 a.u.


 I would recommend the setting:
   dimension x,y,z NGX =    31 NGY =   31 NGZ =   31
 SYSTEM =  unknown system                          
 POSCAR =  Reproduced from the Neaton et al paper  

 Startparameter for this run:
   NWRITE =      2    write-flag & timer
   PREC   = normal    normal or accurate (medium, high low for compatibility)
   ISTART =      0    job   : 0-new  1-cont  2-samecut
   ICHARG =      1    charge: 1-file 2-atom 10-const
   ISPIN  =      2    spin polarized calculation?
   LNONCOLLINEAR =      F non collinear calculations
   LSORBIT =      F    spin-orbit coupling
   INIWAV =      1    electr: 0-lowe 1-rand  2-diag
   LASPH  =      T    aspherical Exc in radial PAW
   METAGGA=      F    non-selfconsistent MetaGGA calc.

 Electronic Relaxation 1
   ENCUT  =  520.0 eV  38.22 Ry    6.18 a.u.  10.27 10.27 10.27*2*pi/ulx,y,z
   ENINI  =  520.0     initial cutoff
   ENAUG  =  605.4 eV  augmentation charge cutoff
   NELM   =     60;   NELMIN=  2; NELMDL= -5     # of ELM steps 
   EDIFF  = 0.1E-06   stopping-criterion for ELM
   LREAL  =      F    real-space projection
   NLSPLINE    = F    spline interpolate recip. space projectors
   LCOMPAT=      F    compatible to vasp.4.4
   GGA_COMPAT  = T    GGA compatible to vasp.4.4-vasp.4.6
   LMAXPAW     = -100 max onsite density
   LMAXMIX     =    6 max onsite mixed and CHGCAR
   VOSKOWN=      0    Vosko Wilk Nusair interpolation
   ROPT   =    0.00000   0.00000   0.00000
 Ionic relaxation
   EDIFFG = 0.1E-05   stopping-criterion for IOM
   NSW    =      0    number of steps for IOM
   NBLOCK =      1;   KBLOCK =      1    inner block; outer block 
   IBRION =     -1    ionic relax: 0-MD 1-quasi-New 2-CG
   NFREE  =      0    steps in history (QN), initial steepest desc. (CG)
   ISIF   =      2    stress and relaxation
   IWAVPR =     10    prediction:  0-non 1-charg 2-wave 3-comb
   ISYM   =      2    0-nonsym 1-usesym 2-fastsym
   LCORR  =      T    Harris-Foulkes like correction to forces

   POTIM  = 0.5000    time-step for ionic-motion
   TEIN   =    0.0    initial temperature
   TEBEG  =    0.0;   TEEND  =   0.0 temperature during run
   SMASS  =  -3.00    Nose mass-parameter (am)
   estimated Nose-frequenzy (Omega)   =  0.10E-29 period in steps =****** mass=  -0.698E-27a.u.
   SCALEE = 1.0000    scale energy and forces
   NPACO  =    256;   APACO  = 16.0  distance and # of slots for P.C.
   PSTRESS=    0.0 pullay stress

  Mass of Ions in am
   POMASS = 208.98 16.00 55.85
  Ionic Valenz
   ZVAL   =  15.00  6.00 14.00
  Atomic Wigner-Seitz radii
   RWIGS  =  -1.00 -1.00 -1.00
  virtual crystal weights 
   VCA    =   1.00  1.00  1.00
   NELECT =      94.0000    total number of electrons
   NUPDOWN=      -1.0000    fix difference up-down

 DOS related values:
   EMIN   =  10.00;   EMAX   =-10.00  energy-range for DOS
   EFERMI =   0.00
   ISMEAR =     0;   SIGMA  =   0.05  broadening in eV -4-tet -1-fermi 0-gaus

 Electronic relaxation 2 (details)
   IALGO  =     38    algorithm
   LDIAG  =      T    sub-space diagonalisation (order eigenvalues)
   LSUBROT=      F    optimize rotation matrix (better conditioning)
   TURBO    =      0    0=normal 1=particle mesh
   IRESTART =      0    0=no restart 2=restart with 2 vectors
   NREBOOT  =      0    no. of reboots
   NMIN     =      0    reboot dimension
   EREF     =   0.00    reference energy to select bands
   IMIX   =      4    mixing-type and parameters
     AMIX     =   0.40;   BMIX     =  1.00
     AMIX_MAG =   1.60;   BMIX_MAG =  1.00
     AMIN     =   0.10
     WC   =   100.;   INIMIX=   1;  MIXPRE=   1;  MAXMIX= -45

 Intra band minimization:
   WEIMIN = 0.0000     energy-eigenvalue tresh-hold
   EBREAK =  0.45E-09  absolut break condition
   DEPER  =   0.30     relativ break condition  

   TIME   =   0.40     timestep for ELM

  volume/ion in A,a.u.               =      11.85        79.97
  Fermi-wavevector in a.u.,A,eV,Ry     =   1.515455  2.863795 31.247197  2.296604
  Thomas-Fermi vector in A             =   2.624977
 
 Write flags
   LWAVE  =      F    write WAVECAR
   LCHARG =      T    write CHGCAR
   LVTOT  =      F    write LOCPOT, total local potential
   LVHAR  =      F    write LOCPOT, Hartree potential only
   LELF   =      F    write electronic localiz. function (ELF)
   LORBIT =     11    0 simple, 1 ext, 2 COOP (PROOUT)


 Dipole corrections
   LMONO  =      F    monopole corrections only (constant potential shift)
   LDIPOL =      F    correct potential (dipole corrections)
   IDIPOL =      0    1-x, 2-y, 3-z, 4-all directions 
   EPSILON=  1.0000000 bulk dielectric constant

 LDA+U is selected, type is set to LDAUTYPE =  2
   angular momentum for each species LDAUL =    -1   -1    2
   U (eV)           for each species LDAUU =   0.0  0.0  7.0
   J (eV)           for each species LDAUJ =   0.0  0.0  0.0
 Exchange correlation treatment:
   GGA     =    --    GGA type
   LEXCH   =     2    internal setting for exchange type
   VOSKOWN=      0    Vosko Wilk Nusair interpolation
   LHFCALC =     F    Hartree Fock is set to
   LHFONE  =     F    Hartree Fock one center treatment
   AEXX    =    0.0000 exact exchange contribution

 Linear response parameters
   LEPSILON=     F    determine dielectric tensor
   LRPA    =     F    only Hartree local field effects (RPA)
   LNABLA  =     F    use nabla operator in PAW spheres
   LVEL    =     F    velocity operator in full k-point grid
   LINTERFAST=   F  fast interpolation
   KINTER  =     0    interpolate to denser k-point grid
   CSHIFT  =0.1000    complex shift for real part using Kramers Kronig
   OMEGAMAX=  -1.0    maximum frequency
   DEG_THRESHOLD= 0.2000000E-02 threshold for treating states as degnerate
   RTIME   =    0.100 relaxation time in fs

 Orbital magnetization related:
   ORBITALMAG=     F  switch on orbital magnetization
   LCHIMAG   =     F  perturbation theory with respect to B field
   DQ        =  0.001000  dq finite difference perturbation B field

 PEAD related settings:
   LPEAD      =     T    switch on PEAD
   IPEAD      =     4    finite difference order for dpsi/dk
   LCALCPOL   =     T    calculate macroscopic polarization
   LCALCEPS   =     F    calculate dielectric tensor
   EFIELD_PEAD=    0.0000    0.0000    0.0000
   SKIP_EDOTP =     F
   LRPA       =     F
   SKIP_SCF   =     F


--------------------------------------------------------------------------------------------------------


 Static calculation
 charge density and potential will be updated during run
 spin polarized calculation
 Variant of blocked Davidson
 Davidson routine will perform the subspace rotation
 perform sub-space diagonalisation
    after iterative eigenvector-optimisation
 modified Broyden-mixing scheme, WC =      100.0
 initial mixing is a Kerker type mixing with AMIX =  0.4000 and BMIX =      1.0000
 Hartree-type preconditioning will be used
 using additional bands            9
 reciprocal scheme for non local part
 use partial core corrections
 calculate Harris-corrections to forces 
   (improved forces if not selfconsistent)
 use of overlap-Matrix (Vanderbilt PP)
 Gauss-broadening in eV      SIGMA  =   0.05


--------------------------------------------------------------------------------------------------------


  energy-cutoff  :      520.00
  volume of cell :      118.50
      direct lattice vectors                 reciprocal lattice vectors
     5.525430926  0.013477337  0.009529196     0.181366224 -0.105196488 -0.074379530
     2.775220989  4.777940667  0.009529196    -0.000383131  0.209666072 -0.074379530
     2.775220989  1.601951744  4.501395165    -0.000383131 -0.000221156  0.222468261

  length of vectors
     5.525455579  5.525455579  5.525455579     0.222468701  0.222468701  0.222468701


 
 k-points in units of 2pi/SCALE and weight: Gamma centred mesh                      
   0.00000000  0.00000000  0.00000000       0.002
   0.02267078 -0.01314956 -0.00929744       0.012
   0.04534156 -0.02629912 -0.01859488       0.012
   0.06801233 -0.03944868 -0.02789232       0.012
   0.09068311 -0.05259824 -0.03718976       0.006
   0.02262289  0.01305870 -0.01859488       0.012
   0.04529366 -0.00009086 -0.02789232       0.023
   0.06796444 -0.01324042 -0.03718976       0.023
   0.09063522 -0.02638998 -0.04648721       0.023
  -0.06806023  0.06565694  0.01859488       0.023
  -0.04538945  0.05250738  0.00929744       0.023
  -0.02271867  0.03935782 -0.00000000       0.012
   0.04524577  0.02611740 -0.03718976       0.012
   0.06791655  0.01296784 -0.04648721       0.023
   0.09058733 -0.00018173 -0.05578465       0.023
  -0.06810812  0.09186520  0.00929744       0.023
  -0.04543734  0.07871564 -0.00000000       0.012
   0.06786866  0.03917609 -0.05578465       0.012
   0.09053944  0.02602653 -0.06508209       0.023
  -0.06815601  0.11807346 -0.00000000       0.012
   0.09049155  0.05223479 -0.07437953       0.006
   0.02257500  0.01303105  0.00921365       0.004
   0.04524577 -0.00011851 -0.00008379       0.012
   0.06791655 -0.01326807 -0.00938123       0.012
   0.09058733 -0.02641763 -0.01867867       0.012
  -0.06810812  0.06562930  0.04640342       0.012
  -0.04543734  0.05247974  0.03710597       0.012
  -0.02276656  0.03933018  0.02780853       0.012
   0.04519788  0.02608975 -0.00938123       0.012
   0.06786866  0.01294019 -0.01867867       0.023
   0.09053944 -0.00020937 -0.02797611       0.023
  -0.06815601  0.09183756  0.03710597       0.023
  -0.04548523  0.07868800  0.02780853       0.023
  -0.02281445  0.06553843  0.01851109       0.023
   0.06782077  0.03914845 -0.02797611       0.012
   0.09049155  0.02599889 -0.03727356       0.023
  -0.06820390  0.11804582  0.02780853       0.023
  -0.04553312  0.10489625  0.01851109       0.023
  -0.02286234  0.09174669  0.00921365       0.023
   0.09044366  0.05220715 -0.04657100       0.012
  -0.06825179  0.14425407  0.01851109       0.023
  -0.04558101  0.13110451  0.00921365       0.023
  -0.02291023  0.11795495 -0.00008379       0.012
  -0.06791655 -0.03920374  0.08359318       0.012
  -0.04524577 -0.05235330  0.07429574       0.023
  -0.04529366 -0.02614504  0.06499830       0.012
   0.04514999  0.02606211  0.01842730       0.004
   0.06782077  0.01291255  0.00912986       0.012
   0.09049155 -0.00023701 -0.00016758       0.012
  -0.06820390  0.09180991  0.06491451       0.012
  -0.04553312  0.07866035  0.05561707       0.012
   0.06777288  0.03912080 -0.00016758       0.012
   0.09044366  0.02597124 -0.00946502       0.023
  -0.06825179  0.11801817  0.05561707       0.023
  -0.04558101  0.10486861  0.04631962       0.023
   0.09039576  0.05217950 -0.01876246       0.012
  -0.06829968  0.14422643  0.04631962       0.023
  -0.04562890  0.13107687  0.03702218       0.012
  -0.06796444 -0.03923138  0.11140171       0.012
   0.06772499  0.03909316  0.02764095       0.004
   0.09039576  0.02594360  0.01834351       0.012
  -0.06829968  0.11799053  0.08342560       0.012
   0.09034787  0.05215186  0.00904607       0.012
  -0.06834757  0.14419879  0.07412816       0.012
   0.09029998  0.05212421  0.03685460       0.002
 
 k-points in reciprocal lattice and weights: Gamma centred mesh                      
   0.00000000  0.00000000  0.00000000       0.002
   0.12500000 -0.00000000  0.00000000       0.012
   0.25000000 -0.00000000  0.00000000       0.012
   0.37500000 -0.00000000 -0.00000000       0.012
   0.50000000 -0.00000000  0.00000000       0.006
   0.12500000  0.12500000  0.00000000       0.012
   0.25000000  0.12500000  0.00000000       0.023
   0.37500000  0.12500000 -0.00000000       0.023
   0.50000000  0.12500000 -0.00000000       0.023
  -0.37500000  0.12500000  0.00000000       0.023
  -0.25000000  0.12500000  0.00000000       0.023
  -0.12500000  0.12500000  0.00000000       0.012
   0.25000000  0.25000000  0.00000000       0.012
   0.37500000  0.25000000  0.00000000       0.023
   0.50000000  0.25000000  0.00000000       0.023
  -0.37500000  0.25000000  0.00000000       0.023
  -0.25000000  0.25000000  0.00000000       0.012
   0.37500000  0.37500000 -0.00000000       0.012
   0.50000000  0.37500000  0.00000000       0.023
  -0.37500000  0.37500000  0.00000000       0.012
   0.50000000  0.50000000  0.00000000       0.006
   0.12500000  0.12500000  0.12500000       0.004
   0.25000000  0.12500000  0.12500000       0.012
   0.37500000  0.12500000  0.12500000       0.012
   0.50000000  0.12500000  0.12500000       0.012
  -0.37500000  0.12500000  0.12500000       0.012
  -0.25000000  0.12500000  0.12500000       0.012
  -0.12500000  0.12500000  0.12500000       0.012
   0.25000000  0.25000000  0.12500000       0.012
   0.37500000  0.25000000  0.12500000       0.023
   0.50000000  0.25000000  0.12500000       0.023
  -0.37500000  0.25000000  0.12500000       0.023
  -0.25000000  0.25000000  0.12500000       0.023
  -0.12500000  0.25000000  0.12500000       0.023
   0.37500000  0.37500000  0.12500000       0.012
   0.50000000  0.37500000  0.12500000       0.023
  -0.37500000  0.37500000  0.12500000       0.023
  -0.25000000  0.37500000  0.12500000       0.023
  -0.12500000  0.37500000  0.12500000       0.023
   0.50000000  0.50000000  0.12500000       0.012
  -0.37500000  0.50000000  0.12500000       0.023
  -0.25000000  0.50000000  0.12500000       0.023
  -0.12500000  0.50000000  0.12500000       0.012
  -0.37500000 -0.37500000  0.12500000       0.012
  -0.25000000 -0.37500000  0.12500000       0.023
  -0.25000000 -0.25000000  0.12500000       0.012
   0.25000000  0.25000000  0.25000000       0.004
   0.37500000  0.25000000  0.25000000       0.012
   0.50000000  0.25000000  0.25000000       0.012
  -0.37500000  0.25000000  0.25000000       0.012
  -0.25000000  0.25000000  0.25000000       0.012
   0.37500000  0.37500000  0.25000000       0.012
   0.50000000  0.37500000  0.25000000       0.023
  -0.37500000  0.37500000  0.25000000       0.023
  -0.25000000  0.37500000  0.25000000       0.023
   0.50000000  0.50000000  0.25000000       0.012
  -0.37500000  0.50000000  0.25000000       0.023
  -0.25000000  0.50000000  0.25000000       0.012
  -0.37500000 -0.37500000  0.25000000       0.012
   0.37500000  0.37500000  0.37500000       0.004
   0.50000000  0.37500000  0.37500000       0.012
  -0.37500000  0.37500000  0.37500000       0.012
   0.50000000  0.50000000  0.37500000       0.012
  -0.37500000  0.50000000  0.37500000       0.012
   0.50000000  0.50000000  0.50000000       0.002
 
 position of ions in fractional coordinates (direct lattice) 
   0.00017171  0.00017171  0.00017171
   0.50017171  0.50017171  0.50017171
   0.53962174  0.94356113  0.39935997
   0.39935997  0.53962174  0.94356113
   0.94356113  0.39935997  0.53962174
   0.44356113  0.03962174  0.89936000
   0.03962174  0.89936000  0.44356113
   0.89936000  0.44356113  0.03962174
   0.22528542  0.22528542  0.22528542
   0.72528540  0.72528540  0.72528540
 
 position of ions in cartesian coordinates  (Angst):
   0.00190188  0.00109783  0.00077622
   5.53983833  3.19778270  2.26100300
   6.70854546  5.15530717  1.81181056
   6.32279614  4.09520235  4.25628927
   7.81946360  2.78528289  2.44184764
   5.05674822  1.63601964  4.05297908
   3.94583008  5.00818623  2.00559169
   6.31029078  2.19490187  0.19115005
   2.49523263  1.44033296  1.01839226
   8.03316892  4.63701774  3.27861897
 


--------------------------------------------------------------------------------------------------------


 k-point  1 :   0.0000 0.0000 0.0000  plane waves:    3161
 k-point  2 :   0.1250-0.0000 0.0000  plane waves:    3196
 k-point  3 :   0.2500-0.0000 0.0000  plane waves:    3195
 k-point  4 :   0.3750-0.0000-0.0000  plane waves:    3189
 k-point  5 :   0.5000-0.0000 0.0000  plane waves:    3186
 k-point  6 :   0.1250 0.1250 0.0000  plane waves:    3196
 k-point  7 :   0.2500 0.1250 0.0000  plane waves:    3194
 k-point  8 :   0.3750 0.1250-0.0000  plane waves:    3186
 k-point  9 :   0.5000 0.1250-0.0000  plane waves:    3190
 k-point 10 :  -0.3750 0.1250 0.0000  plane waves:    3189
 k-point 11 :  -0.2500 0.1250 0.0000  plane waves:    3188
 k-point 12 :  -0.1250 0.1250 0.0000  plane waves:    3202
 k-point 13 :   0.2500 0.2500 0.0000  plane waves:    3188
 k-point 14 :   0.3750 0.2500 0.0000  plane waves:    3193
 k-point 15 :   0.5000 0.2500 0.0000  plane waves:    3193
 k-point 16 :  -0.3750 0.2500 0.0000  plane waves:    3190
 k-point 17 :  -0.2500 0.2500 0.0000  plane waves:    3170
 k-point 18 :   0.3750 0.3750-0.0000  plane waves:    3195
 k-point 19 :   0.5000 0.3750 0.0000  plane waves:    3203
 k-point 20 :  -0.3750 0.3750 0.0000  plane waves:    3204
 k-point 21 :   0.5000 0.5000 0.0000  plane waves:    3234
 k-point 22 :   0.1250 0.1250 0.1250  plane waves:    3191
 k-point 23 :   0.2500 0.1250 0.1250  plane waves:    3196
 k-point 24 :   0.3750 0.1250 0.1250  plane waves:    3188
 k-point 25 :   0.5000 0.1250 0.1250  plane waves:    3190
 k-point 26 :  -0.3750 0.1250 0.1250  plane waves:    3191
 k-point 27 :  -0.2500 0.1250 0.1250  plane waves:    3193
 k-point 28 :  -0.1250 0.1250 0.1250  plane waves:    3198
 k-point 29 :   0.2500 0.2500 0.1250  plane waves:    3198
 k-point 30 :   0.3750 0.2500 0.1250  plane waves:    3189
 k-point 31 :   0.5000 0.2500 0.1250  plane waves:    3185
 k-point 32 :  -0.3750 0.2500 0.1250  plane waves:    3187
 k-point 33 :  -0.2500 0.2500 0.1250  plane waves:    3188
 k-point 34 :  -0.1250 0.2500 0.1250  plane waves:    3189
 k-point 35 :   0.3750 0.3750 0.1250  plane waves:    3186
 k-point 36 :   0.5000 0.3750 0.1250  plane waves:    3184
 k-point 37 :  -0.3750 0.3750 0.1250  plane waves:    3193
 k-point 38 :  -0.2500 0.3750 0.1250  plane waves:    3190
 k-point 39 :  -0.1250 0.3750 0.1250  plane waves:    3190
 k-point 40 :   0.5000 0.5000 0.1250  plane waves:    3192
 k-point 41 :  -0.3750 0.5000 0.1250  plane waves:    3194
 k-point 42 :  -0.2500 0.5000 0.1250  plane waves:    3193
 k-point 43 :  -0.1250 0.5000 0.1250  plane waves:    3192
 k-point 44 :  -0.3750-0.3750 0.1250  plane waves:    3201
 k-point 45 :  -0.2500-0.3750 0.1250  plane waves:    3186
 k-point 46 :  -0.2500-0.2500 0.1250  plane waves:    3181
 k-point 47 :   0.2500 0.2500 0.2500  plane waves:    3185
 k-point 48 :   0.3750 0.2500 0.2500  plane waves:    3183
 k-point 49 :   0.5000 0.2500 0.2500  plane waves:    3171
 k-point 50 :  -0.3750 0.2500 0.2500  plane waves:    3189
 k-point 51 :  -0.2500 0.2500 0.2500  plane waves:    3195
 k-point 52 :   0.3750 0.3750 0.2500  plane waves:    3190
 k-point 53 :   0.5000 0.3750 0.2500  plane waves:    3186
 k-point 54 :  -0.3750 0.3750 0.2500  plane waves:    3190
 k-point 55 :  -0.2500 0.3750 0.2500  plane waves:    3190
 k-point 56 :   0.5000 0.5000 0.2500  plane waves:    3186
 k-point 57 :  -0.3750 0.5000 0.2500  plane waves:    3190
 k-point 58 :  -0.2500 0.5000 0.2500  plane waves:    3196
 k-point 59 :  -0.3750-0.3750 0.2500  plane waves:    3201
 k-point 60 :   0.3750 0.3750 0.3750  plane waves:    3194
 k-point 61 :   0.5000 0.3750 0.3750  plane waves:    3184
 k-point 62 :  -0.3750 0.3750 0.3750  plane waves:    3182
 k-point 63 :   0.5000 0.5000 0.3750  plane waves:    3182
 k-point 64 :  -0.3750 0.5000 0.3750  plane waves:    3182
 k-point 65 :   0.5000 0.5000 0.5000  plane waves:    3184

 maximum and minimum number of plane-waves per node :      3234     3161

 maximum number of plane-waves:      3234
 maximum index in each direction: 
   IXMAX=   10   IYMAX=   10   IZMAX=   10
   IXMIN=  -10   IYMIN=  -10   IZMIN=  -10

 WARNING: aliasing errors must be expected set NGX to  42 to avoid them
 WARNING: aliasing errors must be expected set NGY to  42 to avoid them
 WARNING: aliasing errors must be expected set NGZ to  42 to avoid them
 aliasing errors are usually negligible using standard VASP settings
 and one can safely disregard these warnings

 serial   3D FFT for wavefunctions
 parallel 3D FFT for charge:
    minimum data exchange during FFTs selected (reduces bandwidth)


 total amount of memory used by VASP on root node   230390. kBytes
========================================================================

   base      :      30000. kBytes
   nonl-proj :      91384. kBytes
   fftplans  :       2401. kBytes
   grid      :       8568. kBytes
   one-center:        311. kBytes
   wavefun   :      97726. kBytes
 
     INWAV:  cpu time    0.0000: real time    0.0000
 Broyden mixing: mesh for mixing (old mesh)
   NGX = 21   NGY = 21   NGZ = 21
  (NGX  = 64   NGY  = 64   NGZ  = 64)
  gives a total of   9261 points

 initial charge density was supplied:
 number of electron      93.9999874 magnetization      -0.0000000
 keeping initial charge density in first step


--------------------------------------------------------------------------------------------------------


 Maximum index for augmentation-charges         2969 (set IRDMAX)


--------------------------------------------------------------------------------------------------------


 First call to EWALD:  gamma=   0.361
 Maximum number of real-space cells 3x 3x 3
 Maximum number of reciprocal cells 3x 3x 3

 FEWALD executed in parallel
    FEWALD:  cpu time    0.0019: real time    0.0019


----------------------------------------- Iteration    1(   1)  ---------------------------------------


    POTLOK:  cpu time    0.0254: real time    0.0254
    SETDIJ:  cpu time    1.1831: real time    1.1832
atom =   9  type =  3  l = 2
 
 onsite density matrix
 
spin component  1
 
  0.9971 -0.0041  0.0050 -0.0233 -0.0060
 -0.0041  1.0122  0.0103  0.0041 -0.0167
  0.0050  0.0103  0.9774 -0.0047 -0.0064
 -0.0233  0.0041 -0.0047  0.9957  0.0057
 -0.0060 -0.0167 -0.0064  0.0057  0.9828
 
spin component  2
 
  0.1635 -0.0160  0.0195 -0.0856 -0.0229
 -0.0160  0.2191  0.0393  0.0153 -0.0599
  0.0195  0.0393  0.0911 -0.0182 -0.0240
 -0.0856  0.0153 -0.0182  0.1553  0.0214
 -0.0229 -0.0599 -0.0240  0.0214  0.1085
 
 occupancies and eigenvectors
 
  o =  0.0734  v =  0.0000  0.0000  0.0000  0.0000  0.0000 -0.6667 -0.2720  0.3342 -0.4714 -0.3843      0.0000  0.0000  0.0000  0.0000  0.0000  0.0000  0.0000  0.0000  0.0000  0.0000
  o =  0.0742  v =  0.0000  0.0000  0.0000  0.0000  0.0000  0.0701 -0.0457  0.8627  0.1514  0.4753      0.0000  0.0000  0.0000  0.0000  0.0000  0.0000  0.0000  0.0000  0.0000  0.0000
  o =  0.0742  v =  0.0000  0.0000  0.0000  0.0000  0.0000  0.2503 -0.3669  0.2272  0.5588 -0.6625      0.0000  0.0000  0.0000  0.0000  0.0000  0.0000  0.0000  0.0000  0.0000  0.0000
  o =  0.2579  v =  0.0000  0.0000  0.0000  0.0000  0.0000 -0.6768 -0.0981 -0.2116  0.6442  0.2693      0.0000  0.0000  0.0000  0.0000  0.0000  0.0000  0.0000  0.0000  0.0000  0.0000
  o =  0.2579  v =  0.0000  0.0000  0.0000  0.0000  0.0000  0.1729 -0.8830 -0.2185 -0.1663  0.3391      0.0000  0.0000  0.0000  0.0000  0.0000  0.0000  0.0000  0.0000  0.0000  0.0000
  o =  0.9730  v = -0.6665 -0.2720  0.3369 -0.4711 -0.3827  0.0000  0.0000  0.0000  0.0000  0.0000      0.0000  0.0000  0.0000  0.0000  0.0000  0.0000  0.0000  0.0000  0.0000  0.0000
  o =  0.9731  v = -0.1526  0.1484 -0.8937 -0.3102 -0.2445  0.0000  0.0000  0.0000  0.0000  0.0000      0.0000  0.0000  0.0000  0.0000  0.0000  0.0000  0.0000  0.0000  0.0000  0.0000
  o =  0.9731  v = -0.2224  0.3455  0.0496 -0.4785  0.7744  0.0000  0.0000  0.0000  0.0000  0.0000      0.0000  0.0000  0.0000  0.0000  0.0000  0.0000  0.0000  0.0000  0.0000  0.0000
  o =  1.0229  v = -0.6439 -0.2214 -0.2282  0.6217  0.3126  0.0000  0.0000  0.0000  0.0000  0.0000      0.0000  0.0000  0.0000  0.0000  0.0000  0.0000  0.0000  0.0000  0.0000  0.0000
  o =  1.0229  v =  0.2616 -0.8577 -0.1826 -0.2576  0.3103  0.0000  0.0000  0.0000  0.0000  0.0000      0.0000  0.0000  0.0000  0.0000  0.0000  0.0000  0.0000  0.0000  0.0000  0.0000
atom =  10  type =  3  l = 2
 
 onsite density matrix
 
[...]
     47       6.6534      1.00000
     48       9.4548      0.00000
     49       9.7708      0.00000
     50       9.8269      0.00000
     51      10.2242      0.00000
     52      10.4062      0.00000
     53      10.5252      0.00000
     54      10.8693      0.00000
     55      11.8722      0.00000
     56      11.9537      0.00000

 k-point    65 :       0.5000    0.5000    0.5000
  band No.  band energies     occupation 
      1     -49.7864      1.00000
      2     -49.7352      1.00000
      3     -49.7342      1.00000
      4     -45.2899      1.00000
      5     -45.2448      1.00000
      6     -45.2439      1.00000
      7     -15.2533      1.00000
      8     -15.2515      1.00000
      9     -15.2388      1.00000
     10     -15.2370      1.00000
     11     -15.2141      1.00000
     12     -15.1918      1.00000
     13     -15.1708      1.00000
     14     -15.1687      1.00000
     15     -15.1576      1.00000
     16     -15.1554      1.00000
     17     -11.1111      1.00000
     18     -11.0619      1.00000
     19      -9.9373      1.00000
     20      -9.9357      1.00000
     21      -9.7408      1.00000
     22      -9.7392      1.00000
     23      -2.9348      1.00000
     24      -2.7910      1.00000
     25      -1.3210      1.00000
     26      -1.3202      1.00000
     27      -0.9516      1.00000
     28      -0.9509      1.00000
     29      -0.6889      1.00000
     30       1.7679      1.00000
     31       2.0142      1.00000
     32       2.0147      1.00000
     33       2.0756      1.00000
     34       2.8643      1.00000
     35       2.8649      1.00000
     36       3.5606      1.00000
     37       3.5610      1.00000
     38       4.1275      1.00000
     39       4.2831      1.00000
     40       4.6838      1.00000
     41       4.6856      1.00000
     42       5.0821      1.00000
     43       5.0847      1.00000
     44       6.1184      1.00000
     45       6.1192      1.00000
     46       6.3400      1.00000
     47       6.6672      1.00000
     48       9.2771      0.00000
     49       9.7957      0.00000
     50       9.7968      0.00000
     51      10.1842      0.00000
     52      10.4397      0.00000
     53      10.4405      0.00000
     54      10.7874      0.00000
     55      12.4507      0.00000
     56      12.4633      0.00000


--------------------------------------------------------------------------------------------------------


 soft charge-density along one line, spin component           1
         0         1         2         3         4         5         6         7         8         9
 total charge-density along one line
 
 soft charge-density along one line, spin component           2
         0         1         2         3         4         5         6         7         8         9
 total charge-density along one line
 
 pseudopotential strength for first ion, spin component:           1
-16.652   0.004  -0.006   0.003  -0.002   3.301  -0.002   0.003
  0.004 -16.657  -0.003   0.001  -0.003  -0.002   3.303   0.002
 -0.006  -0.003 -16.646   0.010   0.003   0.003   0.002   3.297
  0.003   0.001   0.010 -16.642  -0.003  -0.001   0.000  -0.005
 -0.002  -0.003   0.003  -0.003 -16.636   0.001   0.002  -0.002
  3.301  -0.002   0.003  -0.001   0.001   6.203   0.001  -0.002
 -0.002   3.303   0.002   0.000   0.002   0.001   6.201  -0.000
  0.003   0.002   3.297  -0.005  -0.002  -0.002  -0.000   6.202
 -0.001   0.000  -0.005   3.295   0.002   0.001   0.001   0.001
  0.001   0.002  -0.002   0.002   3.292  -0.000  -0.001  -0.000
  0.003   0.001  -0.001   0.002   0.002   0.001   0.000  -0.000
 -0.004  -0.002   0.002  -0.003  -0.003  -0.001  -0.000   0.000
  0.012   0.005  -0.004   0.000  -0.007  -0.001  -0.001   0.001
  0.000   0.007   0.005   0.012   0.000   0.000  -0.001  -0.001
  0.007   0.000  -0.007   0.005   0.012  -0.001   0.000   0.001
  0.021   0.007  -0.006   0.000  -0.012  -0.000  -0.001   0.000
  0.000   0.012   0.009   0.020   0.001   0.001  -0.000  -0.001
  0.012   0.000  -0.012   0.008   0.020   0.001   0.001  -0.000
 pseudopotential strength for first ion, spin component:           2
-16.652   0.004  -0.006   0.003  -0.002   3.301  -0.002   0.002
  0.004 -16.657  -0.003   0.000  -0.003  -0.002   3.303   0.002
 -0.006  -0.003 -16.645   0.010   0.003   0.002   0.002   3.297
  0.003   0.000   0.010 -16.642  -0.003  -0.001   0.000  -0.005
 -0.002  -0.003   0.003  -0.003 -16.636   0.001   0.001  -0.002
  3.301  -0.002   0.002  -0.001   0.001   6.203   0.001  -0.001
 -0.002   3.303   0.002   0.000   0.001   0.001   6.201  -0.000
  0.002   0.002   3.297  -0.005  -0.002  -0.001  -0.000   6.202
 -0.001   0.000  -0.005   3.295   0.002   0.001   0.001   0.001
  0.001   0.001  -0.002   0.002   3.292  -0.000  -0.001  -0.000
  0.003   0.001  -0.001   0.002   0.002   0.001   0.000  -0.000
 -0.004  -0.002   0.002  -0.003  -0.003  -0.001  -0.000   0.000
  0.012   0.005  -0.004   0.000  -0.007  -0.002  -0.001   0.001
  0.000   0.007   0.005   0.012   0.000   0.000  -0.001  -0.001
  0.007   0.000  -0.007   0.005   0.012  -0.001   0.000   0.001
  0.021   0.007  -0.006   0.000  -0.012  -0.000  -0.001   0.000
  0.000   0.012   0.009   0.020   0.001   0.001  -0.000  -0.001
  0.012   0.000  -0.012   0.008   0.020   0.000   0.001  -0.000
 total augmentation occupancy for first ion, spin component:           1
  2.001   0.000  -0.000   0.000   0.000   0.000   0.000  -0.000   0.000   0.000   0.001   0.001  -0.020  -0.001  -0.010   0.008
  0.000   2.000   0.000   0.000   0.000   0.000  -0.000   0.001   0.001   0.000   0.000   0.000  -0.004  -0.014  -0.001   0.004
 -0.000   0.000   2.000  -0.000  -0.000  -0.000   0.001  -0.002  -0.001  -0.001  -0.000  -0.001   0.003  -0.009   0.013  -0.003
  0.000   0.000  -0.000   2.000   0.000   0.000   0.001  -0.001  -0.002   0.001   0.000   0.001  -0.000  -0.014  -0.009  -0.000
  0.000   0.000  -0.000   0.000   2.000   0.000   0.000  -0.001   0.001  -0.003   0.000   0.001   0.008  -0.002  -0.017  -0.005
  0.000   0.000  -0.000   0.000   0.000   0.028   0.003  -0.005   0.003  -0.003   0.010  -0.003   0.065   0.011   0.021  -0.008
  0.000  -0.000   0.001   0.001   0.000   0.003   0.027  -0.009  -0.005  -0.003   0.004  -0.001  -0.010   0.050   0.011   0.001
 -0.000   0.001  -0.002  -0.001  -0.001  -0.005  -0.009   0.048   0.015   0.010  -0.005   0.002   0.005   0.034  -0.048  -0.000
  0.000   0.001  -0.001  -0.002   0.001   0.003  -0.005   0.015   0.050  -0.011   0.007  -0.002   0.009   0.019   0.031  -0.001
  0.000   0.000  -0.001   0.001  -0.003  -0.003  -0.003   0.010  -0.011   0.060   0.006  -0.002  -0.018   0.018   0.039   0.002
  0.001   0.000  -0.000   0.000   0.000   0.010   0.004  -0.005   0.007   0.006   2.074  -0.023  -0.062  -0.044  -0.107   0.002
  0.001   0.000  -0.001   0.001   0.001  -0.003  -0.001   0.002  -0.002  -0.002  -0.023   0.035   0.038   0.027   0.066  -0.003
 -0.020  -0.004   0.003  -0.000   0.008   0.065  -0.010   0.005   0.009  -0.018  -0.062   0.038   0.926   0.014   0.033  -0.093
 -0.001  -0.014  -0.009  -0.014  -0.002   0.011   0.050   0.034   0.019   0.018  -0.044   0.027   0.014   0.916   0.023  -0.001
 -0.010  -0.001   0.013  -0.009  -0.017   0.021   0.011  -0.048   0.031   0.039  -0.107   0.066   0.033   0.023   0.964  -0.003
  0.008   0.004  -0.003  -0.000  -0.005  -0.008   0.001  -0.000  -0.001   0.002   0.002  -0.003  -0.093  -0.001  -0.003   0.011
 -0.000   0.004   0.003   0.009  -0.000  -0.002  -0.006  -0.004  -0.003  -0.002   0.001  -0.002  -0.001  -0.092  -0.002   0.000
  0.005  -0.000  -0.004   0.003   0.008  -0.003  -0.002   0.006  -0.004  -0.005   0.003  -0.006  -0.003  -0.002  -0.096   0.000
 total augmentation occupancy for first ion, spin component:           2
 -0.000  -0.000   0.000  -0.000   0.000  -0.000  -0.000   0.000  -0.000  -0.000  -0.000   0.000   0.000  -0.000   0.000   0.000
 -0.000   0.000  -0.000  -0.000   0.000  -0.000  -0.000   0.000  -0.000   0.000  -0.000   0.000   0.000   0.000  -0.000   0.000
  0.000  -0.000  -0.000  -0.000   0.000   0.000   0.000  -0.000   0.000   0.000   0.000  -0.000   0.000  -0.000  -0.000  -0.000
 -0.000  -0.000  -0.000  -0.000  -0.000  -0.000  -0.000   0.000  -0.000  -0.000  -0.000   0.000   0.000   0.000   0.000  -0.000
  0.000   0.000   0.000  -0.000  -0.000  -0.000   0.000   0.000  -0.000  -0.000  -0.000   0.000   0.000   0.000   0.000   0.000
 -0.000  -0.000   0.000  -0.000  -0.000   0.000   0.000   0.000  -0.000   0.000   0.000  -0.000  -0.001   0.000  -0.001   0.000
 -0.000  -0.000   0.000  -0.000   0.000   0.000   0.000  -0.000  -0.000  -0.000   0.000  -0.000  -0.001  -0.000   0.000   0.000
  0.000   0.000  -0.000   0.000   0.000   0.000  -0.000   0.000  -0.000   0.000  -0.000   0.000   0.000   0.000   0.001   0.000
 -0.000  -0.000   0.000  -0.000  -0.000  -0.000  -0.000  -0.000   0.000  -0.000   0.000  -0.000  -0.000  -0.001  -0.000   0.000
 -0.000   0.000   0.000  -0.000  -0.000   0.000  -0.000   0.000  -0.000   0.000   0.000  -0.000   0.000  -0.000  -0.001   0.000
 -0.000  -0.000   0.000  -0.000  -0.000   0.000   0.000  -0.000   0.000   0.000   0.000  -0.000   0.001   0.001   0.003   0.000
  0.000   0.000  -0.000   0.000   0.000  -0.000  -0.000   0.000  -0.000  -0.000  -0.000   0.000  -0.001  -0.001  -0.001  -0.000
  0.000   0.000   0.000   0.000   0.000  -0.001  -0.001   0.000  -0.000   0.000   0.001  -0.001  -0.001  -0.001  -0.003  -0.000
 -0.000   0.000  -0.000   0.000   0.000   0.000  -0.000   0.000  -0.001  -0.000   0.001  -0.001  -0.001  -0.000  -0.002   0.000
  0.000  -0.000  -0.000   0.000   0.000  -0.001   0.000   0.001  -0.000  -0.001   0.003  -0.001  -0.003  -0.002  -0.004   0.000
  0.000   0.000  -0.000  -0.000   0.000   0.000   0.000   0.000   0.000   0.000   0.000  -0.000  -0.000   0.000   0.000   0.000
 -0.000   0.000  -0.000   0.000  -0.000  -0.000   0.000  -0.000   0.000   0.000   0.000  -0.000   0.000  -0.000   0.000  -0.000
  0.000  -0.000  -0.000   0.000   0.000   0.000  -0.000  -0.000   0.000   0.000   0.000  -0.000   0.000   0.000   0.000  -0.000


------------------------ aborting loop because EDIFF is reached ----------------------------------------


     CALCP:  cpu time  296.4185: real time  298.4281
 
            Ionic dipole moment: p[ion]=(    -9.98026    -5.76095    -4.07330 ) electrons Angst
 
    Spin resolved dipole moment: p[sp1]=(    -0.35012    -0.20211    -0.14289 ) electrons Angst
                                 p[sp2]=(     5.18847     2.99335     2.11664 ) electrons Angst
 
 Total electronic dipole moment: p[elc]=(     4.83835     2.79125     1.97375 ) electrons Angst
 
 
 


 total charge     
 
# of ion     s       p       d       tot
----------------------------------------
  1        1.657   0.870  10.028  12.555
  2        1.658   0.868  10.028  12.554
  3        1.559   3.485   0.000   5.044
  4        1.561   3.369   0.000   4.930
  5        1.559   3.460   0.000   5.020
  6        1.558   3.442   0.000   5.000
  7        1.561   3.370   0.000   4.931
  8        1.559   3.508   0.000   5.068
  9        0.322   6.414   5.678  12.414
 10        0.321   6.414   5.677  12.412
------------------------------------------------
tot       13.315  35.201  31.412  79.928
 


 magnetization (x)
 
# of ion     s       p       d       tot
----------------------------------------
  1        0.000  -0.002   0.001  -0.001
  2       -0.001   0.002  -0.001   0.001
  3       -0.000   0.028   0.000   0.027
  4        0.001   0.025   0.000   0.025
  5        0.001   0.020   0.000   0.021
  6       -0.000  -0.022   0.000  -0.023
  7        0.000  -0.031   0.000  -0.030
  8       -0.001  -0.019   0.000  -0.020
  9        0.010   0.017   4.222   4.249
 10       -0.010  -0.017  -4.223  -4.250
------------------------------------------------
tot        0.001   0.001  -0.001  -0.000
 
    CHARGE:  cpu time    1.2513: real time    1.2513
    FORLOC:  cpu time    0.0079: real time    0.0079
    FORNL :  cpu time    8.3036: real time    8.3035
    STRESS:  cpu time    9.7556: real time    9.8359
    FORCOR:  cpu time    0.0320: real time    0.0533
    FORHAR:  cpu time    0.0171: real time    0.0311
    MIXING:  cpu time    0.0045: real time    0.0045
    OFIELD:  cpu time    0.0001: real time    0.0001

  FORCE on cell =-STRESS in cart. coord.  units (eV):
  Direction    XX          YY          ZZ          XY          YZ          ZX
  --------------------------------------------------------------------------------------
  Alpha Z   425.16823   425.16823   425.16823
  Ewald   -2862.50048 -2833.23122 -2825.91722   -25.33771   -10.34121   -17.91511
  Hartree   929.99580   950.40593   955.48250   -17.63218    -7.21289   -12.46583
  E(xc)    -495.59433  -495.59405  -495.59328    -0.00131    -0.00000    -0.00098
  Local      39.27383   -12.01507   -24.76222    44.29304    18.12909    31.31278
  n-local    25.43212    25.52466    26.23822     1.24034    -0.16782     1.53310
  augment   594.33476   595.65107   595.96831    -1.12146    -0.46603    -0.79248
  Kinetic  1345.36723  1343.46830  1342.61667    -0.74691     1.17377    -4.63721
  Fock        0.00000     0.00000     0.00000     0.00000     0.00000     0.00000
  -------------------------------------------------------------------------------------
  Total       0.01751     0.01915     0.01956    -0.00142    -0.00058    -0.00100
  in kB       0.23675     0.25895     0.26449    -0.01921    -0.00784    -0.01358
  external pressure =        0.25 kB  Pullay stress =        0.00 kB


 VOLUME and BASIS-vectors are now :
 -----------------------------------------------------------------------------
  energy-cutoff  :      520.00
  volume of cell :      118.50
      direct lattice vectors                 reciprocal lattice vectors
     5.525430926  0.013477337  0.009529196     0.181366224 -0.105196488 -0.074379530
     2.775220989  4.777940667  0.009529196    -0.000383131  0.209666072 -0.074379530
     2.775220989  1.601951744  4.501395165    -0.000383131 -0.000221156  0.222468261

  length of vectors
     5.525455579  5.525455579  5.525455579     0.222468701  0.222468701  0.222468701


 FORCES acting on ions
    electron-ion (+dipol)            ewald-force                    non-local-force                 convergence-correction
 -----------------------------------------------------------------------------------------------
   0.176E+03 0.102E+03 0.722E+02   -.184E+03 -.106E+03 -.752E+02   0.816E+01 0.471E+01 0.333E+01   -.385E-04 -.224E-04 -.323E-04
   0.176E+03 0.102E+03 0.717E+02   -.184E+03 -.106E+03 -.752E+02   0.816E+01 0.471E+01 0.333E+01   -.127E-04 -.801E-05 0.114E-04
   -.310E+02 -.363E+02 0.368E+02   0.339E+02 0.394E+02 -.362E+02   -.298E+01 -.295E+01 -.610E+00   -.284E-05 0.309E-04 0.805E-05
   0.402E+01 -.380E+02 -.466E+02   -.121E+01 0.399E+02 0.492E+02   -.284E+01 -.181E+01 -.257E+01   0.130E-04 -.173E-04 0.282E-04
   -.470E+02 0.319E+02 -.204E+02   0.511E+02 -.309E+02 0.212E+02   -.404E+01 -.946E+00 -.844E+00   0.265E-04 -.238E-05 -.230E-04
   -.470E+02 -.843E+01 0.368E+02   0.511E+02 0.969E+01 -.362E+02   -.404E+01 -.111E+01 -.610E+00   0.274E-04 -.193E-04 -.637E-05
   -.310E+02 0.226E+02 -.466E+02   0.339E+02 -.210E+02 0.492E+02   -.298E+01 -.156E+01 -.257E+01   0.279E-05 0.331E-05 0.322E-04
   0.398E+01 -.566E+02 -.203E+02   -.121E+01 0.597E+02 0.212E+02   -.284E+01 -.303E+01 -.844E+00   0.611E-05 0.278E-04 -.128E-04
   -.995E+02 -.574E+02 -.410E+02   0.101E+03 0.581E+02 0.411E+02   -.116E+01 -.672E+00 -.475E+00   0.922E-04 0.554E-04 0.611E-04
   -.994E+02 -.574E+02 -.402E+02   0.101E+03 0.581E+02 0.411E+02   -.116E+01 -.672E+00 -.475E+00   0.326E-04 0.207E-04 -.959E-05
 -----------------------------------------------------------------------------------------------
   0.545E+01 0.381E+01 0.234E+01   -.568E-13 0.711E-14 0.000E+00   -.574E+01 -.331E+01 -.234E+01   0.147E-03 0.688E-04 0.569E-04
 
 
 POSITION                                       TOTAL-FORCE (eV/Angst)
 -----------------------------------------------------------------------------------
      0.00190      0.00110      0.00078         0.000388      0.000224      0.000158
      5.53984      3.19778      2.26100         0.000388      0.000224      0.000158
      6.70855      5.15531      1.81181         0.000408     -0.000641     -0.000421
      6.32280      4.09520      4.25629        -0.000325      0.000659     -0.000463
      7.81946      2.78528      2.44185        -0.000351     -0.000173      0.000775
      5.05675      1.63602      4.05298        -0.000351      0.000674     -0.000421
      3.94583      5.00819      2.00559         0.000408     -0.000611     -0.000463
      6.31029      2.19490      0.19115        -0.000325     -0.000217      0.000775
      2.49523      1.44033      1.01839        -0.000120     -0.000069     -0.000049
      8.03317      4.63702      3.27862        -0.000120     -0.000069     -0.000049
 -----------------------------------------------------------------------------------
    total drift:                               -0.288423      0.493953     -0.001117


--------------------------------------------------------------------------------------------------------



  FREE ENERGIE OF THE ION-ELECTRON SYSTEM (eV)
  ---------------------------------------------------
  free  energy   TOTEN  =       -68.31965929 eV

  energy  without entropy=      -68.31965929  energy(sigma->0) =      -68.31965929
 


--------------------------------------------------------------------------------------------------------


    POTLOK:  cpu time    1.2109: real time    1.2385


--------------------------------------------------------------------------------------------------------


     LOOP+:  cpu time  646.0103: real time  650.5707
    4ORBIT:  cpu time    0.0000: real time    0.0000
 


 total charge     
 
# of ion     s       p       d       tot
----------------------------------------
  1        1.657   0.870  10.028  12.555
  2        1.658   0.868  10.028  12.554
  3        1.559   3.485   0.000   5.044
  4        1.561   3.369   0.000   4.930
  5        1.559   3.460   0.000   5.020
  6        1.558   3.442   0.000   5.000
  7        1.561   3.370   0.000   4.931
  8        1.559   3.508   0.000   5.068
  9        0.322   6.414   5.678  12.414
 10        0.321   6.414   5.677  12.412
------------------------------------------------
tot       13.315  35.201  31.412  79.928
 


 magnetization (x)
 
# of ion     s       p       d       tot
----------------------------------------
  1        0.000  -0.002   0.001  -0.001
  2       -0.001   0.002  -0.001   0.001
  3       -0.000   0.028   0.000   0.027
  4        0.001   0.025   0.000   0.025
  5        0.001   0.020   0.000   0.021
  6       -0.000  -0.022   0.000  -0.023
  7        0.000  -0.031   0.000  -0.030
  8       -0.001  -0.019   0.000  -0.020
  9        0.010   0.017   4.222   4.249
 10       -0.010  -0.017  -4.223  -4.250
------------------------------------------------
tot        0.001   0.001  -0.001  -0.000
 

 total amount of memory used by VASP on root node   230390. kBytes
========================================================================

   base      :      30000. kBytes
   nonl-proj :      91384. kBytes
   fftplans  :       2401. kBytes
   grid      :       8568. kBytes
   one-center:        311. kBytes
   wavefun   :      97726. kBytes
 
  
  
 General timing and accounting informations for this job:
 ========================================================
  
                  Total CPU time used (sec):      655.878
                            User time (sec):      650.154
                          System time (sec):        5.724
                         Elapsed time (sec):      667.033
  
                   Maximum memory used (kb):      339924.
                   Average memory used (kb):           0.
  
                          Minor page faults:        15922
                          Major page faults:            4
                 Voluntary context switches:          594
