 vasp.5.4.1 24Jun15 (build Jul 08 2015 18:11:14) complex                        
  
 executed on           IFC91_ompi date 2017.02.23  04:14:18
 running on    4 total cores
 distrk:  each k-point on    4 cores,    1 groups
 distr:  one band on NCORES_PER_BAND=   1 cores,    4 groups


--------------------------------------------------------------------------------------------------------


 INCAR:
 POTCAR:    PAW Bi_d 09Feb1998                    
 POTCAR:    PAW O 22Mar2012                       
 POTCAR:    PAW Fe_pv 02Aug2007                   
 POTCAR:    PAW Bi_d 09Feb1998                    
   VRHFIN =Bi:                                                                  
   LEXCH  = CA                                                                  
   EATOM  =  1963.6922 eV,  144.3273 Ry                                         
                                                                                
   TITEL  = PAW Bi_d 09Feb1998                                                  
   LULTRA =        F    use ultrasoft PP ?                                      
   IUNSCR =        1    unscreen: 0-lin 1-nonlin 2-no                           
   RPACOR =    2.200    partial core radius                                     
   POMASS =  208.980; ZVAL   =   15.000    mass and valenz                      
   RCORE  =    2.500    outmost cutoff radius                                   
   RWIGS  =    3.090; RWIGS  =    1.635    wigner-seitz radius (au A)           
   ENMAX  =  242.856; ENMIN  =  182.142 eV                                      
   ICORE  =        3    local potential                                         
   LCOR   =        T    correct aug charges                                     
   LPAW   =        T    paw PP                                                  
   EAUG   =  442.899                                                            
   DEXC   =    0.000                                                            
   RMAX   =    2.551    core radius for proj-oper                               
   RAUG   =    1.300    factor for augmentation sphere                          
   RDEP   =    2.650    radius for radial grids                                 
   RDEPT  =    2.039    core radius for aug-charge                              
                                                                                
   Atomic configuration                                                         
   16 entries                                                                   
     n  l   j            E        occ.                                          
     1  0  0.50    -89980.6503   2.0000                                         
     2  0  0.50    -16181.3045   2.0000                                         
     2  1  1.50    -13862.2990   6.0000                                         
     3  0  0.50     -3908.4084   2.0000                                         
     3  1  1.50     -3244.8754   6.0000                                         
     3  2  2.50     -2577.2631  10.0000                                         
     4  0  0.50      -896.4147   2.0000                                         
     4  1  1.50      -678.6023   6.0000                                         
     4  2  2.50      -429.2334  10.0000                                         
     4  3  3.50      -153.4278  14.0000                                         
     5  0  0.50      -157.1988   2.0000                                         
     5  1  1.50       -95.6521   6.0000                                         
     5  2  2.50       -27.2461  10.0000                                         
     6  0  0.50       -14.6896   2.0000                                         
     6  1  1.50        -4.7725   3.0000                                         
     5  3  2.50        -2.7212   0.0000                                         
   Description                                                                  
     l       E           TYP  RCUT    TYP  RCUT                                 
     2    -27.2461135     23  2.500                                             
     2     -1.3605826     23  2.500                                             
     0    -14.6896090     23  2.500                                             
     0      6.8029130     23  2.500                                             
     1     -4.7725387     23  2.500                                             
     1     13.6058260     23  2.500                                             
     3     -1.3605826      7  2.500                                             
  local pseudopotential read in
  partial core-charges read in
  partial kinetic energy density read in
  atomic valenz-charges read in
  non local Contribution for L=           2  read in
    real space projection operators read in
  non local Contribution for L=           2  read in
    real space projection operators read in
  non local Contribution for L=           0  read in
    real space projection operators read in
  non local Contribution for L=           0  read in
    real space projection operators read in
  non local Contribution for L=           1  read in
    real space projection operators read in
  non local Contribution for L=           1  read in
    real space projection operators read in
    PAW grid and wavefunctions read in
 
   number of l-projection  operators is LMAX  =           6
   number of lm-projection operators is LMMAX =          18
 
 POTCAR:    PAW O 22Mar2012                       
   VRHFIN =O: s2p4                                                              
   LEXCH  = CA                                                                  
   EATOM  =   431.4380 eV,   31.7098 Ry                                         
                                                                                
   TITEL  = PAW O 22Mar2012                                                     
   LULTRA =        F    use ultrasoft PP ?                                      
   IUNSCR =        1    unscreen: 0-lin 1-nonlin 2-no                           
   RPACOR =    1.200    partial core radius                                     
   POMASS =   16.000; ZVAL   =    6.000    mass and valenz                      
   RCORE  =    1.520    outmost cutoff radius                                   
   RWIGS  =    1.550; RWIGS  =    0.820    wigner-seitz radius (au A)           
   ENMAX  =  400.000; ENMIN  =  300.000 eV                                      
   ICORE  =        2    local potential                                         
   LCOR   =        T    correct aug charges                                     
   LPAW   =        T    paw PP                                                  
   EAUG   =  605.392                                                            
   DEXC   =    0.000                                                            
   RMAX   =    1.553    core radius for proj-oper                               
   RAUG   =    1.300    factor for augmentation sphere                          
   RDEP   =    1.550    radius for radial grids                                 
   RDEPT  =    1.329    core radius for aug-charge                              
                                                                                
   Atomic configuration                                                         
    4 entries                                                                   
     n  l   j            E        occ.                                          
     1  0  0.50      -510.4605   2.0000                                         
     2  0  0.50       -23.7367   2.0000                                         
     2  1  0.50        -9.1995   4.0000                                         
     3  2  1.50        -9.5241   0.0000                                         
   Description                                                                  
     l       E           TYP  RCUT    TYP  RCUT                                 
     0    -23.7366993     23  1.200                                             
     0     -9.5240782     23  1.200                                             
     1     -9.1994509     23  1.520                                             
     1      8.1634956     23  1.520                                             
     2     -9.5240782      7  1.500                                             
  local pseudopotential read in
  partial core-charges read in
  partial kinetic energy density read in
  kinetic energy density of atom read in
  atomic valenz-charges read in
  non local Contribution for L=           0  read in
    real space projection operators read in
  non local Contribution for L=           0  read in
    real space projection operators read in
  non local Contribution for L=           1  read in
    real space projection operators read in
  non local Contribution for L=           1  read in
    real space projection operators read in
    PAW grid and wavefunctions read in
 
   number of l-projection  operators is LMAX  =           4
   number of lm-projection operators is LMMAX =           8
 
 POTCAR:    PAW Fe_pv 02Aug2007                   
   VRHFIN =Fe:  d7 s1                                                           
   LEXCH  = CA                                                                  
   EATOM  =  2460.5054 eV,  180.8420 Ry                                         
                                                                                
   TITEL  = PAW Fe_pv 02Aug2007                                                 
   LULTRA =        F    use ultrasoft PP ?                                      
   IUNSCR =        1    unscreen: 0-lin 1-nonlin 2-no                           
   RPACOR =    1.750    partial core radius                                     
   POMASS =   55.847; ZVAL   =   14.000    mass and valenz                      
   RCORE  =    2.200    outmost cutoff radius                                   
   RWIGS  =    2.200; RWIGS  =    1.164    wigner-seitz radius (au A)           
   ENMAX  =  293.303; ENMIN  =  219.977 eV                                      
   ICORE  =        3    local potential                                         
   LCOR   =        T    correct aug charges                                     
   LPAW   =        T    paw PP                                                  
   EAUG   =  578.342                                                            
   DEXC   =    0.000                                                            
   RMAX   =    2.249    core radius for proj-oper                               
   RAUG   =    1.300    factor for augmentation sphere                          
   RDEP   =    2.296    radius for radial grids                                 
   RDEPT  =    1.766    core radius for aug-charge                              
                                                                                
   Atomic configuration                                                         
    8 entries                                                                   
     n  l   j            E        occ.                                          
     1  0  0.50     -6959.8071   2.0000                                         
     2  0  0.50      -811.1996   2.0000                                         
     2  1  1.50      -692.1696   6.0000                                         
     3  0  0.50       -88.7875   2.0000                                         
     3  1  1.50       -55.4703   6.0000                                         
     3  2  2.50        -4.0733   7.0000                                         
     4  0  0.50        -4.4654   1.0000                                         
     4  3  2.50        -1.3606   0.0000                                         
   Description                                                                  
     l       E           TYP  RCUT    TYP  RCUT                                 
     1    -55.4702629     23  2.000                                             
     1     -5.4423304     23  2.000                                             
     2     -4.0732955     23  2.200                                             
     2     -5.4338781     23  2.200                                             
     0     -4.4654424     23  2.200                                             
     0     27.2116520     23  2.200                                             
     3     -1.3605826     23  2.200                                             
  local pseudopotential read in
  partial core-charges read in
  partial kinetic energy density read in
  atomic valenz-charges read in
  non local Contribution for L=           1  read in
    real space projection operators read in
  non local Contribution for L=           1  read in
    real space projection operators read in
  non local Contribution for L=           2  read in
    real space projection operators read in
  non local Contribution for L=           2  read in
    real space projection operators read in
  non local Contribution for L=           0  read in
    real space projection operators read in
  non local Contribution for L=           0  read in
    real space projection operators read in
    PAW grid and wavefunctions read in
 
   number of l-projection  operators is LMAX  =           6
   number of lm-projection operators is LMMAX =          18
 
  PAW Bi_d 09Feb1998                    :
 energy of atom  1       EATOM=-1963.6922
 kinetic energy error for atom=    0.0041 (will be added to EATOM!!)
  PAW O 22Mar2012                       :
 energy of atom  2       EATOM= -431.4380
 kinetic energy error for atom=    0.0204 (will be added to EATOM!!)
  PAW Fe_pv 02Aug2007                   :
 energy of atom  3       EATOM=-2460.5054
 kinetic energy error for atom=    0.0062 (will be added to EATOM!!)
 
 
 POSCAR: Reproduced from the Neaton et al paper  
  positions in direct lattice
  velocities in cartesian coordinates
 exchange correlation table for  LEXCH =        2
   RHO(1)=    0.500       N(1)  =     2000
   RHO(2)=  100.500       N(2)  =     4000
 


--------------------------------------------------------------------------------------------------------


 ion  position               nearest neighbor table
   1  0.001  0.001  0.001-   7 2.31   8 2.31   6 2.31   5 2.42   3 2.42   4 2.42   9 3.07  10 3.28
                            10 3.28  10 3.28   2 3.89   2 3.89   2 3.89   2 3.89   2 3.89   2 3.89
   2  0.501  0.501  0.501-   4 2.31   3 2.31   5 2.31   6 2.42   8 2.42   7 2.42  10 3.07   9 3.28
                             9 3.28   9 3.28   1 3.89   1 3.89   1 3.89   1 3.89   1 3.89   1 3.89
   3  0.541  0.943  0.397-   9 1.94  10 2.07   2 2.31   1 2.42
   4  0.397  0.541  0.943-   9 1.94  10 2.07   2 2.31   1 2.42
   5  0.943  0.397  0.541-   9 1.94  10 2.07   2 2.31   1 2.42
   6  0.443  0.041  0.897-  10 1.94   9 2.07   1 2.31   2 2.42
   7  0.041  0.897  0.443-  10 1.94   9 2.07   1 2.31   2 2.42
   8  0.897  0.443  0.041-  10 1.94   9 2.07   1 2.31   2 2.42
   9  0.227  0.227  0.227-   4 1.94   3 1.94   5 1.94   7 2.07   8 2.07   6 2.07   1 3.07   2 3.28
                             2 3.28   2 3.28
  10  0.727  0.727  0.727-   8 1.94   7 1.94   6 1.94   3 2.07   4 2.07   5 2.07   2 3.07   1 3.28
                             1 3.28   1 3.28
 
  LATTYP: Found a trigonal (rhomboedric) cell.
 ALAT       =     5.5156662821
 COS(alpha) =     0.5026667582
  
  Lattice vectors:
  
 A1 = (   5.5156575433,   0.0080168565,   0.0056683453)
 A2 = (   2.7656043829,   4.7722085875,   0.0056683453)
 A3 = (   2.7656043829,   1.5964007125,   4.4972782545)


Analysis of symmetry for initial positions (statically):
=====================================================================
 Subroutine PRICEL returns:
 Original cell was already a primitive cell.
 

 Routine SETGRP: Setting up the symmetry group for a 
 trigonal (rhombohedral) supercell.


 Subroutine GETGRP returns: Found  3 space group operations
 (whereof  3 operations were pure point group operations)
 out of a pool of 12 trial point group operations.


The static configuration has the point symmetry C_3 .


Analysis of symmetry for dynamics (positions and initial velocities):
=====================================================================
 Subroutine PRICEL returns:
 Original cell was already a primitive cell.
 

 Routine SETGRP: Setting up the symmetry group for a 
 trigonal (rhombohedral) supercell.


 Subroutine GETGRP returns: Found  3 space group operations
 (whereof  3 operations were pure point group operations)
 out of a pool of 12 trial point group operations.


The dynamic configuration has the point symmetry C_3 .


Analysis of magnetic symmetry:
=====================================================================
 Subroutine PRICEL returns:
 Original cell was already a primitive cell.
 

 Subroutine MAGSYM returns: Found  3 space group operations
 (whereof  3 operations were pure point group operations)
 out of a pool of  3 trial space group operations
 (whereof  3 operations were pure point group operations)
 and found also     1 'primitive' translations


The magnetic configuration has the point symmetry C_3 .
 
 
 KPOINTS: Gamma centred mesh                      

Automatic generation of k-mesh.
Space group operators:
 irot       det(A)        alpha          n_x          n_y          n_z        tau_x        tau_y        tau_z
    1     1.000000     0.000001     1.000000     0.000000     0.000000     0.000000     0.000000     0.000000
    2     1.000000   120.000000    -0.816558    -0.471345    -0.333266     0.000000     0.000000     0.000000
    3     1.000000   120.000000     0.816558     0.471345     0.333266     0.000000     0.000000     0.000000
 
 Subroutine IBZKPT returns following result:
 ===========================================
 
 Found     90 irreducible k-points:
 
 Following reciprocal coordinates:
            Coordinates               Weight
  0.000000  0.000000  0.000000      1.000000
  0.125000  0.000000  0.000000      6.000000
  0.250000  0.000000  0.000000      6.000000
  0.375000  0.000000  0.000000      6.000000
  0.500000  0.000000  0.000000      3.000000
  0.125000  0.125000  0.000000      6.000000
  0.250000  0.125000  0.000000      6.000000
  0.375000  0.125000  0.000000      6.000000
  0.500000  0.125000  0.000000      6.000000
 -0.375000  0.125000 -0.000000      6.000000
 -0.250000  0.125000 -0.000000      6.000000
 -0.125000  0.125000 -0.000000      6.000000
  0.125000  0.250000  0.000000      6.000000
  0.250000  0.250000  0.000000      6.000000
  0.375000  0.250000  0.000000      6.000000
  0.500000  0.250000  0.000000      6.000000
 -0.375000  0.250000 -0.000000      6.000000
 -0.250000  0.250000 -0.000000      6.000000
 -0.125000  0.250000  0.000000      6.000000
  0.125000  0.375000  0.000000      6.000000
  0.250000  0.375000  0.000000      6.000000
  0.375000  0.375000  0.000000      6.000000
  0.500000  0.375000  0.000000      6.000000
 -0.375000  0.375000  0.000000      6.000000
 -0.250000  0.375000  0.000000      6.000000
 -0.125000  0.375000  0.000000      6.000000
  0.125000  0.500000  0.000000      6.000000
  0.250000  0.500000  0.000000      6.000000
  0.375000  0.500000  0.000000      6.000000
  0.500000  0.500000  0.000000      3.000000
  0.125000  0.125000  0.125000      2.000000
  0.250000  0.125000  0.125000      6.000000
  0.375000  0.125000  0.125000      6.000000
  0.500000  0.125000  0.125000      6.000000
 -0.375000  0.125000  0.125000      6.000000
 -0.250000  0.125000  0.125000      6.000000
 -0.125000  0.125000  0.125000      6.000000
  0.250000  0.250000  0.125000      6.000000
  0.375000  0.250000  0.125000      6.000000
  0.500000  0.250000  0.125000      6.000000
 -0.375000  0.250000  0.125000      6.000000
 -0.250000  0.250000  0.125000      6.000000
 -0.125000  0.250000  0.125000      6.000000
  0.250000  0.375000  0.125000      6.000000
  0.375000  0.375000  0.125000      6.000000
  0.500000  0.375000  0.125000      6.000000
 -0.375000  0.375000  0.125000      6.000000
 -0.250000  0.375000  0.125000      6.000000
 -0.125000  0.375000  0.125000      6.000000
  0.250000  0.500000  0.125000      6.000000
  0.375000  0.500000  0.125000      6.000000
  0.500000  0.500000  0.125000      6.000000
 -0.375000  0.500000  0.125000      6.000000
 -0.250000  0.500000  0.125000      6.000000
 -0.125000  0.500000  0.125000      6.000000
  0.250000 -0.375000  0.125000      6.000000
  0.375000 -0.375000  0.125000      6.000000
  0.500000 -0.375000  0.125000      6.000000
 -0.375000 -0.375000  0.125000      6.000000
 -0.250000 -0.375000  0.125000      6.000000
 -0.125000 -0.375000  0.125000      6.000000
  0.250000 -0.250000  0.125000      6.000000
  0.375000 -0.250000  0.125000      6.000000
  0.500000 -0.250000  0.125000      6.000000
 -0.375000 -0.250000  0.125000      6.000000
 -0.250000 -0.250000  0.125000      6.000000
 -0.125000 -0.250000  0.125000      6.000000
  0.250000  0.250000  0.250000      2.000000
  0.375000  0.250000  0.250000      6.000000
  0.500000  0.250000  0.250000      6.000000
 -0.375000  0.250000  0.250000      6.000000
 -0.250000  0.250000  0.250000      6.000000
  0.375000  0.375000  0.250000      6.000000
  0.500000  0.375000  0.250000      6.000000
 -0.375000  0.375000  0.250000      6.000000
 -0.250000  0.375000  0.250000      6.000000
  0.375000  0.500000  0.250000      6.000000
  0.500000  0.500000  0.250000      6.000000
 -0.375000  0.500000  0.250000      6.000000
 -0.250000  0.500000  0.250000      6.000000
  0.375000 -0.375000  0.250000      6.000000
  0.500000 -0.375000  0.250000      6.000000
 -0.375000 -0.375000  0.250000      6.000000
 -0.250000 -0.375000  0.250000      6.000000
  0.375000  0.375000  0.375000      2.000000
  0.500000  0.375000  0.375000      6.000000
 -0.375000  0.375000  0.375000      6.000000
  0.500000  0.500000  0.375000      6.000000
 -0.375000  0.500000  0.375000      6.000000
  0.500000  0.500000  0.500000      1.000000
 
 Following cartesian coordinates:
            Coordinates               Weight
  0.000000  0.000000  0.000000      1.000000
  0.022691 -0.013139 -0.009290      6.000000
  0.045383 -0.026278 -0.018580      6.000000
  0.068074 -0.039417 -0.027870      6.000000
  0.090766 -0.052557 -0.037160      3.000000
  0.022663  0.013082 -0.018580      6.000000
  0.045354 -0.000057 -0.027870      6.000000
  0.068046 -0.013197 -0.037160      6.000000
  0.090737 -0.026336 -0.046450      6.000000
 -0.068103  0.065638  0.018580      6.000000
 -0.045411  0.052499  0.009290      6.000000
 -0.022720  0.039360 -0.000000      6.000000
  0.022634  0.039303 -0.027870      6.000000
  0.045326  0.026164 -0.037160      6.000000
  0.068017  0.013024 -0.046450      6.000000
  0.090708 -0.000115 -0.055740      6.000000
 -0.068131  0.091859  0.009290      6.000000
 -0.045440  0.078720 -0.000000      6.000000
 -0.022749  0.065581 -0.009290      6.000000
  0.022606  0.065524 -0.037160      6.000000
  0.045297  0.052384 -0.046450      6.000000
  0.067989  0.039245 -0.055740      6.000000
  0.090680  0.026106 -0.065031      6.000000
 -0.068160  0.118080 -0.000000      6.000000
 -0.045468  0.104941 -0.009290      6.000000
 -0.022777  0.091802 -0.018580      6.000000
  0.022577  0.091744 -0.046450      6.000000
  0.045269  0.078605 -0.055740      6.000000
  0.067960  0.065466 -0.065031      6.000000
  0.090651  0.052327 -0.074321      3.000000
  0.022634  0.013065  0.009238      2.000000
  0.045326 -0.000074 -0.000052      6.000000
  0.068017 -0.013213 -0.009342      6.000000
  0.090708 -0.026352 -0.018632      6.000000
 -0.068131  0.065622  0.046398      6.000000
 -0.045440  0.052483  0.037108      6.000000
 -0.022749  0.039344  0.027818      6.000000
  0.045297  0.026147 -0.009342      6.000000
  0.067989  0.013008 -0.018632      6.000000
  0.090680 -0.000131 -0.027922      6.000000
 -0.068160  0.091843  0.037108      6.000000
 -0.045468  0.078704  0.027818      6.000000
 -0.022777  0.065564  0.018528      6.000000
  0.045269  0.052368 -0.018632      6.000000
  0.067960  0.039229 -0.027922      6.000000
  0.090651  0.026090 -0.037213      6.000000
 -0.068188  0.118064  0.027818      6.000000
 -0.045497  0.104925  0.018528      6.000000
 -0.022806  0.091785  0.009238      6.000000
  0.045240  0.078589 -0.027922      6.000000
  0.067931  0.065450 -0.037213      6.000000
  0.090623  0.052311 -0.046503      6.000000
 -0.068217  0.144285  0.018528      6.000000
 -0.045526  0.131145  0.009238      6.000000
 -0.022834  0.118006 -0.000052      6.000000
  0.045440 -0.104958  0.037108      6.000000
  0.068131 -0.118097  0.027818      6.000000
  0.090823 -0.131236  0.018528      6.000000
 -0.068017 -0.039262  0.083558      6.000000
 -0.045326 -0.052401  0.074268      6.000000
 -0.022634 -0.065540  0.064978      6.000000
  0.045411 -0.078737  0.027818      6.000000
  0.068103 -0.091876  0.018528      6.000000
  0.090794 -0.105015  0.009238      6.000000
 -0.068046 -0.013041  0.074268      6.000000
 -0.045354 -0.026180  0.064978      6.000000
 -0.022663 -0.039319  0.055688      6.000000
  0.045269  0.026131  0.018476      2.000000
  0.067960  0.012991  0.009186      6.000000
  0.090651 -0.000148 -0.000104      6.000000
 -0.068188  0.091826  0.064926      6.000000
 -0.045497  0.078687  0.055636      6.000000
  0.067931  0.039212 -0.000104      6.000000
  0.090623  0.026073 -0.009395      6.000000
 -0.068217  0.118047  0.055636      6.000000
 -0.045526  0.104908  0.046346      6.000000
  0.067903  0.065433 -0.009395      6.000000
  0.090594  0.052294 -0.018685      6.000000
 -0.068246  0.144268  0.046346      6.000000
 -0.045554  0.131129  0.037056      6.000000
  0.068103 -0.118113  0.055636      6.000000
  0.090794 -0.131252  0.046346      6.000000
 -0.068046 -0.039278  0.111377      6.000000
 -0.045354 -0.052417  0.102086      6.000000
  0.067903  0.039196  0.027714      2.000000
  0.090594  0.026057  0.018423      6.000000
 -0.068246  0.118031  0.083454      6.000000
  0.090566  0.052278  0.009133      6.000000
 -0.068274  0.144252  0.074164      6.000000
  0.090537  0.052261  0.036951      1.000000
 
 
 Subroutine IBZKPT_HF returns following result:
 ==============================================
 
 Found    512 k-points in 1st BZ
 the following    512 k-points will be used (e.g. in the exchange kernel)
 Following reciprocal coordinates:   # in IRBZ
  0.000000  0.000000  0.000000    0.00195312   1 t-inv F
  0.125000  0.000000  0.000000    0.00195312   2 t-inv F
  0.250000  0.000000  0.000000    0.00195312   3 t-inv F
  0.375000  0.000000  0.000000    0.00195312   4 t-inv F
  0.500000  0.000000  0.000000    0.00195312   5 t-inv F
  0.125000  0.125000  0.000000    0.00195312   6 t-inv F
  0.250000  0.125000  0.000000    0.00195312   7 t-inv F
  0.375000  0.125000  0.000000    0.00195312   8 t-inv F
  0.500000  0.125000  0.000000    0.00195312   9 t-inv F
 -0.375000  0.125000 -0.000000    0.00195312  10 t-inv F
 -0.250000  0.125000 -0.000000    0.00195312  11 t-inv F
 -0.125000  0.125000 -0.000000    0.00195312  12 t-inv F
  0.125000  0.250000  0.000000    0.00195312  13 t-inv F
  0.250000  0.250000  0.000000    0.00195312  14 t-inv F
  0.375000  0.250000  0.000000    0.00195312  15 t-inv F
  0.500000  0.250000  0.000000    0.00195312  16 t-inv F
 -0.375000  0.250000 -0.000000    0.00195312  17 t-inv F
 -0.250000  0.250000 -0.000000    0.00195312  18 t-inv F
 -0.125000  0.250000  0.000000    0.00195312  19 t-inv F
  0.125000  0.375000  0.000000    0.00195312  20 t-inv F
  0.250000  0.375000  0.000000    0.00195312  21 t-inv F
  0.375000  0.375000  0.000000    0.00195312  22 t-inv F
  0.500000  0.375000  0.000000    0.00195312  23 t-inv F
 -0.375000  0.375000  0.000000    0.00195312  24 t-inv F
 -0.250000  0.375000  0.000000    0.00195312  25 t-inv F
 -0.125000  0.375000  0.000000    0.00195312  26 t-inv F
  0.125000  0.500000  0.000000    0.00195312  27 t-inv F
  0.250000  0.500000  0.000000    0.00195312  28 t-inv F
  0.375000  0.500000  0.000000    0.00195312  29 t-inv F
  0.500000  0.500000  0.000000    0.00195312  30 t-inv F
  0.125000  0.125000  0.125000    0.00195312  31 t-inv F
  0.250000  0.125000  0.125000    0.00195312  32 t-inv F
  0.375000  0.125000  0.125000    0.00195312  33 t-inv F
  0.500000  0.125000  0.125000    0.00195312  34 t-inv F
 -0.375000  0.125000  0.125000    0.00195312  35 t-inv F
 -0.250000  0.125000  0.125000    0.00195312  36 t-inv F
 -0.125000  0.125000  0.125000    0.00195312  37 t-inv F
  0.250000  0.250000  0.125000    0.00195312  38 t-inv F
  0.375000  0.250000  0.125000    0.00195312  39 t-inv F
  0.500000  0.250000  0.125000    0.00195312  40 t-inv F
 -0.375000  0.250000  0.125000    0.00195312  41 t-inv F
 -0.250000  0.250000  0.125000    0.00195312  42 t-inv F
 -0.125000  0.250000  0.125000    0.00195312  43 t-inv F
  0.250000  0.375000  0.125000    0.00195312  44 t-inv F
  0.375000  0.375000  0.125000    0.00195312  45 t-inv F
  0.500000  0.375000  0.125000    0.00195312  46 t-inv F
 -0.375000  0.375000  0.125000    0.00195312  47 t-inv F
 -0.250000  0.375000  0.125000    0.00195312  48 t-inv F
 -0.125000  0.375000  0.125000    0.00195312  49 t-inv F
  0.250000  0.500000  0.125000    0.00195312  50 t-inv F
  0.375000  0.500000  0.125000    0.00195312  51 t-inv F
  0.500000  0.500000  0.125000    0.00195312  52 t-inv F
 -0.375000  0.500000  0.125000    0.00195312  53 t-inv F
 -0.250000  0.500000  0.125000    0.00195312  54 t-inv F
 -0.125000  0.500000  0.125000    0.00195312  55 t-inv F
  0.250000 -0.375000  0.125000    0.00195312  56 t-inv F
  0.375000 -0.375000  0.125000    0.00195312  57 t-inv F
  0.500000 -0.375000  0.125000    0.00195312  58 t-inv F
 -0.375000 -0.375000  0.125000    0.00195312  59 t-inv F
 -0.250000 -0.375000  0.125000    0.00195312  60 t-inv F
 -0.125000 -0.375000  0.125000    0.00195312  61 t-inv F
  0.250000 -0.250000  0.125000    0.00195312  62 t-inv F
  0.375000 -0.250000  0.125000    0.00195312  63 t-inv F
  0.500000 -0.250000  0.125000    0.00195312  64 t-inv F
 -0.375000 -0.250000  0.125000    0.00195312  65 t-inv F
 -0.250000 -0.250000  0.125000    0.00195312  66 t-inv F
 -0.125000 -0.250000  0.125000    0.00195312  67 t-inv F
  0.250000  0.250000  0.250000    0.00195312  68 t-inv F
  0.375000  0.250000  0.250000    0.00195312  69 t-inv F
  0.500000  0.250000  0.250000    0.00195312  70 t-inv F
 -0.375000  0.250000  0.250000    0.00195312  71 t-inv F
 -0.250000  0.250000  0.250000    0.00195312  72 t-inv F
  0.375000  0.375000  0.250000    0.00195312  73 t-inv F
  0.500000  0.375000  0.250000    0.00195312  74 t-inv F
 -0.375000  0.375000  0.250000    0.00195312  75 t-inv F
 -0.250000  0.375000  0.250000    0.00195312  76 t-inv F
  0.375000  0.500000  0.250000    0.00195312  77 t-inv F
  0.500000  0.500000  0.250000    0.00195312  78 t-inv F
 -0.375000  0.500000  0.250000    0.00195312  79 t-inv F
 -0.250000  0.500000  0.250000    0.00195312  80 t-inv F
  0.375000 -0.375000  0.250000    0.00195312  81 t-inv F
  0.500000 -0.375000  0.250000    0.00195312  82 t-inv F
 -0.375000 -0.375000  0.250000    0.00195312  83 t-inv F
 -0.250000 -0.375000  0.250000    0.00195312  84 t-inv F
  0.375000  0.375000  0.375000    0.00195312  85 t-inv F
  0.500000  0.375000  0.375000    0.00195312  86 t-inv F
 -0.375000  0.375000  0.375000    0.00195312  87 t-inv F
  0.500000  0.500000  0.375000    0.00195312  88 t-inv F
 -0.375000  0.500000  0.375000    0.00195312  89 t-inv F
  0.500000  0.500000  0.500000    0.00195312  90 t-inv F
  0.000000  0.125000  0.000000    0.00195312   2 t-inv F
  0.000000  0.000000  0.125000    0.00195312   2 t-inv F
  0.000000  0.250000  0.000000    0.00195312   3 t-inv F
  0.000000  0.000000  0.250000    0.00195312   3 t-inv F
  0.000000  0.375000  0.000000    0.00195312   4 t-inv F
  0.000000  0.000000  0.375000    0.00195312   4 t-inv F
  0.000000  0.500000  0.000000    0.00195312   5 t-inv F
  0.000000  0.000000  0.500000    0.00195312   5 t-inv F
  0.000000  0.125000  0.125000    0.00195312   6 t-inv F
  0.125000  0.000000  0.125000    0.00195312   6 t-inv F
  0.000000  0.250000  0.125000    0.00195312   7 t-inv F
  0.125000  0.000000  0.250000    0.00195312   7 t-inv F
  0.000000  0.375000  0.125000    0.00195312   8 t-inv F
  0.125000  0.000000  0.375000    0.00195312   8 t-inv F
  0.000000  0.500000  0.125000    0.00195312   9 t-inv F
  0.125000  0.000000  0.500000    0.00195312   9 t-inv F
 -0.000000 -0.375000  0.125000    0.00195312  10 t-inv F
  0.125000 -0.000000 -0.375000    0.00195312  10 t-inv F
 -0.000000 -0.250000  0.125000    0.00195312  11 t-inv F
  0.125000 -0.000000 -0.250000    0.00195312  11 t-inv F
 -0.000000 -0.125000  0.125000    0.00195312  12 t-inv F
  0.125000 -0.000000 -0.125000    0.00195312  12 t-inv F
  0.000000  0.125000  0.250000    0.00195312  13 t-inv F
  0.250000  0.000000  0.125000    0.00195312  13 t-inv F
  0.000000  0.250000  0.250000    0.00195312  14 t-inv F
  0.250000  0.000000  0.250000    0.00195312  14 t-inv F
  0.000000  0.375000  0.250000    0.00195312  15 t-inv F
  0.250000  0.000000  0.375000    0.00195312  15 t-inv F
  0.000000  0.500000  0.250000    0.00195312  16 t-inv F
  0.250000  0.000000  0.500000    0.00195312  16 t-inv F
 -0.000000 -0.375000  0.250000    0.00195312  17 t-inv F
  0.250000 -0.000000 -0.375000    0.00195312  17 t-inv F
 -0.000000 -0.250000  0.250000    0.00195312  18 t-inv F
  0.250000 -0.000000 -0.250000    0.00195312  18 t-inv F
  0.000000 -0.125000  0.250000    0.00195312  19 t-inv F
  0.250000  0.000000 -0.125000    0.00195312  19 t-inv F
  0.000000  0.125000  0.375000    0.00195312  20 t-inv F
  0.375000  0.000000  0.125000    0.00195312  20 t-inv F
  0.000000  0.250000  0.375000    0.00195312  21 t-inv F
  0.375000  0.000000  0.250000    0.00195312  21 t-inv F
  0.000000  0.375000  0.375000    0.00195312  22 t-inv F
  0.375000  0.000000  0.375000    0.00195312  22 t-inv F
  0.000000  0.500000  0.375000    0.00195312  23 t-inv F
  0.375000  0.000000  0.500000    0.00195312  23 t-inv F
  0.000000 -0.375000  0.375000    0.00195312  24 t-inv F
  0.375000  0.000000 -0.375000    0.00195312  24 t-inv F
  0.000000 -0.250000  0.375000    0.00195312  25 t-inv F
  0.375000  0.000000 -0.250000    0.00195312  25 t-inv F
  0.000000 -0.125000  0.375000    0.00195312  26 t-inv F
  0.375000  0.000000 -0.125000    0.00195312  26 t-inv F
  0.000000  0.125000  0.500000    0.00195312  27 t-inv F
  0.500000  0.000000  0.125000    0.00195312  27 t-inv F
  0.000000  0.250000  0.500000    0.00195312  28 t-inv F
  0.500000  0.000000  0.250000    0.00195312  28 t-inv F
  0.000000  0.375000  0.500000    0.00195312  29 t-inv F
  0.500000  0.000000  0.375000    0.00195312  29 t-inv F
  0.000000  0.500000  0.500000    0.00195312  30 t-inv F
  0.500000  0.000000  0.500000    0.00195312  30 t-inv F
  0.125000  0.250000  0.125000    0.00195312  32 t-inv F
  0.125000  0.125000  0.250000    0.00195312  32 t-inv F
  0.125000  0.375000  0.125000    0.00195312  33 t-inv F
  0.125000  0.125000  0.375000    0.00195312  33 t-inv F
  0.125000  0.500000  0.125000    0.00195312  34 t-inv F
  0.125000  0.125000  0.500000    0.00195312  34 t-inv F
  0.125000 -0.375000  0.125000    0.00195312  35 t-inv F
  0.125000  0.125000 -0.375000    0.00195312  35 t-inv F
  0.125000 -0.250000  0.125000    0.00195312  36 t-inv F
  0.125000  0.125000 -0.250000    0.00195312  36 t-inv F
  0.125000 -0.125000  0.125000    0.00195312  37 t-inv F
  0.125000  0.125000 -0.125000    0.00195312  37 t-inv F
  0.125000  0.250000  0.250000    0.00195312  38 t-inv F
  0.250000  0.125000  0.250000    0.00195312  38 t-inv F
  0.125000  0.375000  0.250000    0.00195312  39 t-inv F
  0.250000  0.125000  0.375000    0.00195312  39 t-inv F
  0.125000  0.500000  0.250000    0.00195312  40 t-inv F
  0.250000  0.125000  0.500000    0.00195312  40 t-inv F
  0.125000 -0.375000  0.250000    0.00195312  41 t-inv F
  0.250000  0.125000 -0.375000    0.00195312  41 t-inv F
  0.125000 -0.250000  0.250000    0.00195312  42 t-inv F
  0.250000  0.125000 -0.250000    0.00195312  42 t-inv F
  0.125000 -0.125000  0.250000    0.00195312  43 t-inv F
  0.250000  0.125000 -0.125000    0.00195312  43 t-inv F
  0.125000  0.250000  0.375000    0.00195312  44 t-inv F
  0.375000  0.125000  0.250000    0.00195312  44 t-inv F
  0.125000  0.375000  0.375000    0.00195312  45 t-inv F
  0.375000  0.125000  0.375000    0.00195312  45 t-inv F
  0.125000  0.500000  0.375000    0.00195312  46 t-inv F
  0.375000  0.125000  0.500000    0.00195312  46 t-inv F
  0.125000 -0.375000  0.375000    0.00195312  47 t-inv F
  0.375000  0.125000 -0.375000    0.00195312  47 t-inv F
  0.125000 -0.250000  0.375000    0.00195312  48 t-inv F
  0.375000  0.125000 -0.250000    0.00195312  48 t-inv F
  0.125000 -0.125000  0.375000    0.00195312  49 t-inv F
  0.375000  0.125000 -0.125000    0.00195312  49 t-inv F
  0.125000  0.250000  0.500000    0.00195312  50 t-inv F
  0.500000  0.125000  0.250000    0.00195312  50 t-inv F
  0.125000  0.375000  0.500000    0.00195312  51 t-inv F
  0.500000  0.125000  0.375000    0.00195312  51 t-inv F
  0.125000  0.500000  0.500000    0.00195312  52 t-inv F
  0.500000  0.125000  0.500000    0.00195312  52 t-inv F
  0.125000 -0.375000  0.500000    0.00195312  53 t-inv F
  0.500000  0.125000 -0.375000    0.00195312  53 t-inv F
  0.125000 -0.250000  0.500000    0.00195312  54 t-inv F
  0.500000  0.125000 -0.250000    0.00195312  54 t-inv F
  0.125000 -0.125000  0.500000    0.00195312  55 t-inv F
  0.500000  0.125000 -0.125000    0.00195312  55 t-inv F
  0.125000  0.250000 -0.375000    0.00195312  56 t-inv F
 -0.375000  0.125000  0.250000    0.00195312  56 t-inv F
  0.125000  0.375000 -0.375000    0.00195312  57 t-inv F
 -0.375000  0.125000  0.375000    0.00195312  57 t-inv F
  0.125000  0.500000 -0.375000    0.00195312  58 t-inv F
 -0.375000  0.125000  0.500000    0.00195312  58 t-inv F
  0.125000 -0.375000 -0.375000    0.00195312  59 t-inv F
 -0.375000  0.125000 -0.375000    0.00195312  59 t-inv F
  0.125000 -0.250000 -0.375000    0.00195312  60 t-inv F
 -0.375000  0.125000 -0.250000    0.00195312  60 t-inv F
  0.125000 -0.125000 -0.375000    0.00195312  61 t-inv F
 -0.375000  0.125000 -0.125000    0.00195312  61 t-inv F
  0.125000  0.250000 -0.250000    0.00195312  62 t-inv F
 -0.250000  0.125000  0.250000    0.00195312  62 t-inv F
  0.125000  0.375000 -0.250000    0.00195312  63 t-inv F
 -0.250000  0.125000  0.375000    0.00195312  63 t-inv F
  0.125000  0.500000 -0.250000    0.00195312  64 t-inv F
 -0.250000  0.125000  0.500000    0.00195312  64 t-inv F
  0.125000 -0.375000 -0.250000    0.00195312  65 t-inv F
 -0.250000  0.125000 -0.375000    0.00195312  65 t-inv F
  0.125000 -0.250000 -0.250000    0.00195312  66 t-inv F
 -0.250000  0.125000 -0.250000    0.00195312  66 t-inv F
  0.125000 -0.125000 -0.250000    0.00195312  67 t-inv F
 -0.250000  0.125000 -0.125000    0.00195312  67 t-inv F
  0.250000  0.375000  0.250000    0.00195312  69 t-inv F
  0.250000  0.250000  0.375000    0.00195312  69 t-inv F
  0.250000  0.500000  0.250000    0.00195312  70 t-inv F
  0.250000  0.250000  0.500000    0.00195312  70 t-inv F
  0.250000 -0.375000  0.250000    0.00195312  71 t-inv F
  0.250000  0.250000 -0.375000    0.00195312  71 t-inv F
  0.250000 -0.250000  0.250000    0.00195312  72 t-inv F
  0.250000  0.250000 -0.250000    0.00195312  72 t-inv F
  0.250000  0.375000  0.375000    0.00195312  73 t-inv F
  0.375000  0.250000  0.375000    0.00195312  73 t-inv F
  0.250000  0.500000  0.375000    0.00195312  74 t-inv F
  0.375000  0.250000  0.500000    0.00195312  74 t-inv F
  0.250000 -0.375000  0.375000    0.00195312  75 t-inv F
  0.375000  0.250000 -0.375000    0.00195312  75 t-inv F
  0.250000 -0.250000  0.375000    0.00195312  76 t-inv F
  0.375000  0.250000 -0.250000    0.00195312  76 t-inv F
  0.250000  0.375000  0.500000    0.00195312  77 t-inv F
  0.500000  0.250000  0.375000    0.00195312  77 t-inv F
  0.250000  0.500000  0.500000    0.00195312  78 t-inv F
  0.500000  0.250000  0.500000    0.00195312  78 t-inv F
  0.250000 -0.375000  0.500000    0.00195312  79 t-inv F
  0.500000  0.250000 -0.375000    0.00195312  79 t-inv F
  0.250000 -0.250000  0.500000    0.00195312  80 t-inv F
  0.500000  0.250000 -0.250000    0.00195312  80 t-inv F
  0.250000  0.375000 -0.375000    0.00195312  81 t-inv F
 -0.375000  0.250000  0.375000    0.00195312  81 t-inv F
  0.250000  0.500000 -0.375000    0.00195312  82 t-inv F
 -0.375000  0.250000  0.500000    0.00195312  82 t-inv F
  0.250000 -0.375000 -0.375000    0.00195312  83 t-inv F
 -0.375000  0.250000 -0.375000    0.00195312  83 t-inv F
  0.250000 -0.250000 -0.375000    0.00195312  84 t-inv F
 -0.375000  0.250000 -0.250000    0.00195312  84 t-inv F
  0.375000  0.500000  0.375000    0.00195312  86 t-inv F
  0.375000  0.375000  0.500000    0.00195312  86 t-inv F
  0.375000 -0.375000  0.375000    0.00195312  87 t-inv F
  0.375000  0.375000 -0.375000    0.00195312  87 t-inv F
  0.375000  0.500000  0.500000    0.00195312  88 t-inv F
  0.500000  0.375000  0.500000    0.00195312  88 t-inv F
  0.375000 -0.375000  0.500000    0.00195312  89 t-inv F
  0.500000  0.375000 -0.375000    0.00195312  89 t-inv F
 -0.125000 -0.000000  0.000000    0.00195312   2 t-inv T
  0.000000 -0.125000 -0.000000    0.00195312   2 t-inv T
 -0.000000  0.000000 -0.125000    0.00195312   2 t-inv T
 -0.250000 -0.000000  0.000000    0.00195312   3 t-inv T
  0.000000 -0.250000 -0.000000    0.00195312   3 t-inv T
 -0.000000  0.000000 -0.250000    0.00195312   3 t-inv T
 -0.375000 -0.000000  0.000000    0.00195312   4 t-inv T
  0.000000 -0.375000 -0.000000    0.00195312   4 t-inv T
 -0.000000  0.000000 -0.375000    0.00195312   4 t-inv T
 -0.125000 -0.125000 -0.000000    0.00195312   6 t-inv T
 -0.000000 -0.125000 -0.125000    0.00195312   6 t-inv T
 -0.125000 -0.000000 -0.125000    0.00195312   6 t-inv T
 -0.250000 -0.125000 -0.000000    0.00195312   7 t-inv T
 -0.000000 -0.250000 -0.125000    0.00195312   7 t-inv T
 -0.125000 -0.000000 -0.250000    0.00195312   7 t-inv T
 -0.375000 -0.125000 -0.000000    0.00195312   8 t-inv T
 -0.000000 -0.375000 -0.125000    0.00195312   8 t-inv T
 -0.125000 -0.000000 -0.375000    0.00195312   8 t-inv T
 -0.500000 -0.125000 -0.000000    0.00195312   9 t-inv T
 -0.000000 -0.500000 -0.125000    0.00195312   9 t-inv T
 -0.125000 -0.000000 -0.500000    0.00195312   9 t-inv T
  0.375000 -0.125000  0.000000    0.00195312  10 t-inv T
  0.000000  0.375000 -0.125000    0.00195312  10 t-inv T
 -0.125000  0.000000  0.375000    0.00195312  10 t-inv T
  0.250000 -0.125000  0.000000    0.00195312  11 t-inv T
  0.000000  0.250000 -0.125000    0.00195312  11 t-inv T
 -0.125000  0.000000  0.250000    0.00195312  11 t-inv T
  0.125000 -0.125000  0.000000    0.00195312  12 t-inv T
  0.000000  0.125000 -0.125000    0.00195312  12 t-inv T
 -0.125000  0.000000  0.125000    0.00195312  12 t-inv T
 -0.125000 -0.250000 -0.000000    0.00195312  13 t-inv T
 -0.000000 -0.125000 -0.250000    0.00195312  13 t-inv T
 -0.250000 -0.000000 -0.125000    0.00195312  13 t-inv T
 -0.250000 -0.250000 -0.000000    0.00195312  14 t-inv T
 -0.000000 -0.250000 -0.250000    0.00195312  14 t-inv T
 -0.250000 -0.000000 -0.250000    0.00195312  14 t-inv T
 -0.375000 -0.250000  0.000000    0.00195312  15 t-inv T
  0.000000 -0.375000 -0.250000    0.00195312  15 t-inv T
 -0.250000  0.000000 -0.375000    0.00195312  15 t-inv T
 -0.500000 -0.250000 -0.000000    0.00195312  16 t-inv T
 -0.000000 -0.500000 -0.250000    0.00195312  16 t-inv T
 -0.250000 -0.000000 -0.500000    0.00195312  16 t-inv T
  0.375000 -0.250000  0.000000    0.00195312  17 t-inv T
  0.000000  0.375000 -0.250000    0.00195312  17 t-inv T
 -0.250000  0.000000  0.375000    0.00195312  17 t-inv T
  0.250000 -0.250000  0.000000    0.00195312  18 t-inv T
  0.000000  0.250000 -0.250000    0.00195312  18 t-inv T
 -0.250000  0.000000  0.250000    0.00195312  18 t-inv T
  0.125000 -0.250000 -0.000000    0.00195312  19 t-inv T
 -0.000000  0.125000 -0.250000    0.00195312  19 t-inv T
 -0.250000 -0.000000  0.125000    0.00195312  19 t-inv T
 -0.125000 -0.375000  0.000000    0.00195312  20 t-inv T
  0.000000 -0.125000 -0.375000    0.00195312  20 t-inv T
 -0.375000  0.000000 -0.125000    0.00195312  20 t-inv T
 -0.250000 -0.375000  0.000000    0.00195312  21 t-inv T
  0.000000 -0.250000 -0.375000    0.00195312  21 t-inv T
 -0.375000  0.000000 -0.250000    0.00195312  21 t-inv T
 -0.375000 -0.375000 -0.000000    0.00195312  22 t-inv T
 -0.000000 -0.375000 -0.375000    0.00195312  22 t-inv T
 -0.375000 -0.000000 -0.375000    0.00195312  22 t-inv T
 -0.500000 -0.375000 -0.000000    0.00195312  23 t-inv T
 -0.000000 -0.500000 -0.375000    0.00195312  23 t-inv T
 -0.375000 -0.000000 -0.500000    0.00195312  23 t-inv T
  0.375000 -0.375000 -0.000000    0.00195312  24 t-inv T
 -0.000000  0.375000 -0.375000    0.00195312  24 t-inv T
 -0.375000 -0.000000  0.375000    0.00195312  24 t-inv T
  0.250000 -0.375000  0.000000    0.00195312  25 t-inv T
  0.000000  0.250000 -0.375000    0.00195312  25 t-inv T
 -0.375000  0.000000  0.250000    0.00195312  25 t-inv T
  0.125000 -0.375000 -0.000000    0.00195312  26 t-inv T
 -0.000000  0.125000 -0.375000    0.00195312  26 t-inv T
 -0.375000 -0.000000  0.125000    0.00195312  26 t-inv T
 -0.125000 -0.500000 -0.000000    0.00195312  27 t-inv T
 -0.000000 -0.125000 -0.500000    0.00195312  27 t-inv T
 -0.500000 -0.000000 -0.125000    0.00195312  27 t-inv T
 -0.250000 -0.500000 -0.000000    0.00195312  28 t-inv T
 -0.000000 -0.250000 -0.500000    0.00195312  28 t-inv T
 -0.500000 -0.000000 -0.250000    0.00195312  28 t-inv T
 -0.375000 -0.500000  0.000000    0.00195312  29 t-inv T
  0.000000 -0.375000 -0.500000    0.00195312  29 t-inv T
 -0.500000  0.000000 -0.375000    0.00195312  29 t-inv T
 -0.125000 -0.125000 -0.125000    0.00195312  31 t-inv T
 -0.250000 -0.125000 -0.125000    0.00195312  32 t-inv T
 -0.125000 -0.250000 -0.125000    0.00195312  32 t-inv T
 -0.125000 -0.125000 -0.250000    0.00195312  32 t-inv T
 -0.375000 -0.125000 -0.125000    0.00195312  33 t-inv T
 -0.125000 -0.375000 -0.125000    0.00195312  33 t-inv T
 -0.125000 -0.125000 -0.375000    0.00195312  33 t-inv T
 -0.500000 -0.125000 -0.125000    0.00195312  34 t-inv T
 -0.125000 -0.500000 -0.125000    0.00195312  34 t-inv T
 -0.125000 -0.125000 -0.500000    0.00195312  34 t-inv T
  0.375000 -0.125000 -0.125000    0.00195312  35 t-inv T
 -0.125000  0.375000 -0.125000    0.00195312  35 t-inv T
 -0.125000 -0.125000  0.375000    0.00195312  35 t-inv T
  0.250000 -0.125000 -0.125000    0.00195312  36 t-inv T
 -0.125000  0.250000 -0.125000    0.00195312  36 t-inv T
 -0.125000 -0.125000  0.250000    0.00195312  36 t-inv T
  0.125000 -0.125000 -0.125000    0.00195312  37 t-inv T
 -0.125000  0.125000 -0.125000    0.00195312  37 t-inv T
 -0.125000 -0.125000  0.125000    0.00195312  37 t-inv T
 -0.250000 -0.250000 -0.125000    0.00195312  38 t-inv T
 -0.125000 -0.250000 -0.250000    0.00195312  38 t-inv T
 -0.250000 -0.125000 -0.250000    0.00195312  38 t-inv T
 -0.375000 -0.250000 -0.125000    0.00195312  39 t-inv T
 -0.125000 -0.375000 -0.250000    0.00195312  39 t-inv T
 -0.250000 -0.125000 -0.375000    0.00195312  39 t-inv T
 -0.500000 -0.250000 -0.125000    0.00195312  40 t-inv T
 -0.125000 -0.500000 -0.250000    0.00195312  40 t-inv T
 -0.250000 -0.125000 -0.500000    0.00195312  40 t-inv T
  0.375000 -0.250000 -0.125000    0.00195312  41 t-inv T
 -0.125000  0.375000 -0.250000    0.00195312  41 t-inv T
 -0.250000 -0.125000  0.375000    0.00195312  41 t-inv T
  0.250000 -0.250000 -0.125000    0.00195312  42 t-inv T
 -0.125000  0.250000 -0.250000    0.00195312  42 t-inv T
 -0.250000 -0.125000  0.250000    0.00195312  42 t-inv T
  0.125000 -0.250000 -0.125000    0.00195312  43 t-inv T
 -0.125000  0.125000 -0.250000    0.00195312  43 t-inv T
 -0.250000 -0.125000  0.125000    0.00195312  43 t-inv T
 -0.250000 -0.375000 -0.125000    0.00195312  44 t-inv T
 -0.125000 -0.250000 -0.375000    0.00195312  44 t-inv T
 -0.375000 -0.125000 -0.250000    0.00195312  44 t-inv T
 -0.375000 -0.375000 -0.125000    0.00195312  45 t-inv T
 -0.125000 -0.375000 -0.375000    0.00195312  45 t-inv T
 -0.375000 -0.125000 -0.375000    0.00195312  45 t-inv T
 -0.500000 -0.375000 -0.125000    0.00195312  46 t-inv T
 -0.125000 -0.500000 -0.375000    0.00195312  46 t-inv T
 -0.375000 -0.125000 -0.500000    0.00195312  46 t-inv T
  0.375000 -0.375000 -0.125000    0.00195312  47 t-inv T
 -0.125000  0.375000 -0.375000    0.00195312  47 t-inv T
 -0.375000 -0.125000  0.375000    0.00195312  47 t-inv T
  0.250000 -0.375000 -0.125000    0.00195312  48 t-inv T
 -0.125000  0.250000 -0.375000    0.00195312  48 t-inv T
 -0.375000 -0.125000  0.250000    0.00195312  48 t-inv T
  0.125000 -0.375000 -0.125000    0.00195312  49 t-inv T
 -0.125000  0.125000 -0.375000    0.00195312  49 t-inv T
 -0.375000 -0.125000  0.125000    0.00195312  49 t-inv T
 -0.250000 -0.500000 -0.125000    0.00195312  50 t-inv T
 -0.125000 -0.250000 -0.500000    0.00195312  50 t-inv T
 -0.500000 -0.125000 -0.250000    0.00195312  50 t-inv T
 -0.375000 -0.500000 -0.125000    0.00195312  51 t-inv T
 -0.125000 -0.375000 -0.500000    0.00195312  51 t-inv T
 -0.500000 -0.125000 -0.375000    0.00195312  51 t-inv T
 -0.500000 -0.500000 -0.125000    0.00195312  52 t-inv T
 -0.125000 -0.500000 -0.500000    0.00195312  52 t-inv T
 -0.500000 -0.125000 -0.500000    0.00195312  52 t-inv T
  0.375000 -0.500000 -0.125000    0.00195312  53 t-inv T
 -0.125000  0.375000 -0.500000    0.00195312  53 t-inv T
 -0.500000 -0.125000  0.375000    0.00195312  53 t-inv T
  0.250000 -0.500000 -0.125000    0.00195312  54 t-inv T
 -0.125000  0.250000 -0.500000    0.00195312  54 t-inv T
 -0.500000 -0.125000  0.250000    0.00195312  54 t-inv T
  0.125000 -0.500000 -0.125000    0.00195312  55 t-inv T
 -0.125000  0.125000 -0.500000    0.00195312  55 t-inv T
 -0.500000 -0.125000  0.125000    0.00195312  55 t-inv T
 -0.250000  0.375000 -0.125000    0.00195312  56 t-inv T
 -0.125000 -0.250000  0.375000    0.00195312  56 t-inv T
  0.375000 -0.125000 -0.250000    0.00195312  56 t-inv T
 -0.375000  0.375000 -0.125000    0.00195312  57 t-inv T
 -0.125000 -0.375000  0.375000    0.00195312  57 t-inv T
  0.375000 -0.125000 -0.375000    0.00195312  57 t-inv T
 -0.500000  0.375000 -0.125000    0.00195312  58 t-inv T
 -0.125000 -0.500000  0.375000    0.00195312  58 t-inv T
  0.375000 -0.125000 -0.500000    0.00195312  58 t-inv T
  0.375000  0.375000 -0.125000    0.00195312  59 t-inv T
 -0.125000  0.375000  0.375000    0.00195312  59 t-inv T
  0.375000 -0.125000  0.375000    0.00195312  59 t-inv T
  0.250000  0.375000 -0.125000    0.00195312  60 t-inv T
 -0.125000  0.250000  0.375000    0.00195312  60 t-inv T
  0.375000 -0.125000  0.250000    0.00195312  60 t-inv T
  0.125000  0.375000 -0.125000    0.00195312  61 t-inv T
 -0.125000  0.125000  0.375000    0.00195312  61 t-inv T
  0.375000 -0.125000  0.125000    0.00195312  61 t-inv T
 -0.250000  0.250000 -0.125000    0.00195312  62 t-inv T
 -0.125000 -0.250000  0.250000    0.00195312  62 t-inv T
  0.250000 -0.125000 -0.250000    0.00195312  62 t-inv T
 -0.375000  0.250000 -0.125000    0.00195312  63 t-inv T
 -0.125000 -0.375000  0.250000    0.00195312  63 t-inv T
  0.250000 -0.125000 -0.375000    0.00195312  63 t-inv T
 -0.500000  0.250000 -0.125000    0.00195312  64 t-inv T
 -0.125000 -0.500000  0.250000    0.00195312  64 t-inv T
  0.250000 -0.125000 -0.500000    0.00195312  64 t-inv T
  0.375000  0.250000 -0.125000    0.00195312  65 t-inv T
 -0.125000  0.375000  0.250000    0.00195312  65 t-inv T
  0.250000 -0.125000  0.375000    0.00195312  65 t-inv T
  0.250000  0.250000 -0.125000    0.00195312  66 t-inv T
 -0.125000  0.250000  0.250000    0.00195312  66 t-inv T
  0.250000 -0.125000  0.250000    0.00195312  66 t-inv T
  0.125000  0.250000 -0.125000    0.00195312  67 t-inv T
 -0.125000  0.125000  0.250000    0.00195312  67 t-inv T
  0.250000 -0.125000  0.125000    0.00195312  67 t-inv T
 -0.250000 -0.250000 -0.250000    0.00195312  68 t-inv T
 -0.375000 -0.250000 -0.250000    0.00195312  69 t-inv T
 -0.250000 -0.375000 -0.250000    0.00195312  69 t-inv T
 -0.250000 -0.250000 -0.375000    0.00195312  69 t-inv T
 -0.500000 -0.250000 -0.250000    0.00195312  70 t-inv T
 -0.250000 -0.500000 -0.250000    0.00195312  70 t-inv T
 -0.250000 -0.250000 -0.500000    0.00195312  70 t-inv T
  0.375000 -0.250000 -0.250000    0.00195312  71 t-inv T
 -0.250000  0.375000 -0.250000    0.00195312  71 t-inv T
 -0.250000 -0.250000  0.375000    0.00195312  71 t-inv T
  0.250000 -0.250000 -0.250000    0.00195312  72 t-inv T
 -0.250000  0.250000 -0.250000    0.00195312  72 t-inv T
 -0.250000 -0.250000  0.250000    0.00195312  72 t-inv T
 -0.375000 -0.375000 -0.250000    0.00195312  73 t-inv T
 -0.250000 -0.375000 -0.375000    0.00195312  73 t-inv T
 -0.375000 -0.250000 -0.375000    0.00195312  73 t-inv T
 -0.500000 -0.375000 -0.250000    0.00195312  74 t-inv T
 -0.250000 -0.500000 -0.375000    0.00195312  74 t-inv T
 -0.375000 -0.250000 -0.500000    0.00195312  74 t-inv T
  0.375000 -0.375000 -0.250000    0.00195312  75 t-inv T
 -0.250000  0.375000 -0.375000    0.00195312  75 t-inv T
 -0.375000 -0.250000  0.375000    0.00195312  75 t-inv T
  0.250000 -0.375000 -0.250000    0.00195312  76 t-inv T
 -0.250000  0.250000 -0.375000    0.00195312  76 t-inv T
 -0.375000 -0.250000  0.250000    0.00195312  76 t-inv T
 -0.375000 -0.500000 -0.250000    0.00195312  77 t-inv T
 -0.250000 -0.375000 -0.500000    0.00195312  77 t-inv T
 -0.500000 -0.250000 -0.375000    0.00195312  77 t-inv T
 -0.500000 -0.500000 -0.250000    0.00195312  78 t-inv T
 -0.250000 -0.500000 -0.500000    0.00195312  78 t-inv T
 -0.500000 -0.250000 -0.500000    0.00195312  78 t-inv T
  0.375000 -0.500000 -0.250000    0.00195312  79 t-inv T
 -0.250000  0.375000 -0.500000    0.00195312  79 t-inv T
 -0.500000 -0.250000  0.375000    0.00195312  79 t-inv T
  0.250000 -0.500000 -0.250000    0.00195312  80 t-inv T
 -0.250000  0.250000 -0.500000    0.00195312  80 t-inv T
 -0.500000 -0.250000  0.250000    0.00195312  80 t-inv T
 -0.375000  0.375000 -0.250000    0.00195312  81 t-inv T
 -0.250000 -0.375000  0.375000    0.00195312  81 t-inv T
  0.375000 -0.250000 -0.375000    0.00195312  81 t-inv T
 -0.500000  0.375000 -0.250000    0.00195312  82 t-inv T
 -0.250000 -0.500000  0.375000    0.00195312  82 t-inv T
  0.375000 -0.250000 -0.500000    0.00195312  82 t-inv T
  0.375000  0.375000 -0.250000    0.00195312  83 t-inv T
 -0.250000  0.375000  0.375000    0.00195312  83 t-inv T
  0.375000 -0.250000  0.375000    0.00195312  83 t-inv T
  0.250000  0.375000 -0.250000    0.00195312  84 t-inv T
 -0.250000  0.250000  0.375000    0.00195312  84 t-inv T
  0.375000 -0.250000  0.250000    0.00195312  84 t-inv T
 -0.375000 -0.375000 -0.375000    0.00195312  85 t-inv T
 -0.500000 -0.375000 -0.375000    0.00195312  86 t-inv T
 -0.375000 -0.500000 -0.375000    0.00195312  86 t-inv T
 -0.375000 -0.375000 -0.500000    0.00195312  86 t-inv T
  0.375000 -0.375000 -0.375000    0.00195312  87 t-inv T
 -0.375000  0.375000 -0.375000    0.00195312  87 t-inv T
 -0.375000 -0.375000  0.375000    0.00195312  87 t-inv T
 -0.500000 -0.500000 -0.375000    0.00195312  88 t-inv T
 -0.375000 -0.500000 -0.500000    0.00195312  88 t-inv T
 -0.500000 -0.375000 -0.500000    0.00195312  88 t-inv T
  0.375000 -0.500000 -0.375000    0.00195312  89 t-inv T
 -0.375000  0.375000 -0.500000    0.00195312  89 t-inv T
 -0.500000 -0.375000  0.375000    0.00195312  89 t-inv T


--------------------------------------------------------------------------------------------------------




 Dimension of arrays:
   k-points           NKPTS =     90   k-points in BZ     NKDIM =     90   number of bands    NBANDS=     56
   number of dos      NEDOS =    301   number of ions     NIONS =     10
   non local maximal  LDIM  =      6   non local SUM 2l+1 LMDIM =     18
   total plane-waves  NPLWV =  32768
   max r-space proj   IRMAX =      1   max aug-charges    IRDMAX=  12452
   dimension x,y,z NGX =    32 NGY =   32 NGZ =   32
   dimension x,y,z NGXF=    64 NGYF=   64 NGZF=   64
   support grid    NGXF=    64 NGYF=   64 NGZF=   64
   ions per type =               2   6   2
 NGX,Y,Z   is equivalent  to a cutoff of   9.65,  9.65,  9.65 a.u.
 NGXF,Y,Z  is equivalent  to a cutoff of  19.29, 19.29, 19.29 a.u.


 I would recommend the setting:
   dimension x,y,z NGX =    31 NGY =   31 NGZ =   31
 SYSTEM =  unknown system                          
 POSCAR =  Reproduced from the Neaton et al paper  

 Startparameter for this run:
   NWRITE =      2    write-flag & timer
   PREC   = normal    normal or accurate (medium, high low for compatibility)
   ISTART =      0    job   : 0-new  1-cont  2-samecut
   ICHARG =      1    charge: 1-file 2-atom 10-const
   ISPIN  =      2    spin polarized calculation?
   LNONCOLLINEAR =      F non collinear calculations
   LSORBIT =      F    spin-orbit coupling
   INIWAV =      1    electr: 0-lowe 1-rand  2-diag
   LASPH  =      T    aspherical Exc in radial PAW
   METAGGA=      F    non-selfconsistent MetaGGA calc.

 Electronic Relaxation 1
   ENCUT  =  520.0 eV  38.22 Ry    6.18 a.u.  10.26 10.26 10.26*2*pi/ulx,y,z
   ENINI  =  520.0     initial cutoff
   ENAUG  =  605.4 eV  augmentation charge cutoff
   NELM   =     60;   NELMIN=  2; NELMDL= -5     # of ELM steps 
   EDIFF  = 0.1E-06   stopping-criterion for ELM
   LREAL  =      F    real-space projection
   NLSPLINE    = F    spline interpolate recip. space projectors
   LCOMPAT=      F    compatible to vasp.4.4
   GGA_COMPAT  = T    GGA compatible to vasp.4.4-vasp.4.6
   LMAXPAW     = -100 max onsite density
   LMAXMIX     =    6 max onsite mixed and CHGCAR
   VOSKOWN=      0    Vosko Wilk Nusair interpolation
   ROPT   =    0.00000   0.00000   0.00000
 Ionic relaxation
   EDIFFG = 0.1E-05   stopping-criterion for IOM
   NSW    =      0    number of steps for IOM
   NBLOCK =      1;   KBLOCK =      1    inner block; outer block 
   IBRION =     -1    ionic relax: 0-MD 1-quasi-New 2-CG
   NFREE  =      0    steps in history (QN), initial steepest desc. (CG)
   ISIF   =      2    stress and relaxation
   IWAVPR =     10    prediction:  0-non 1-charg 2-wave 3-comb
   ISYM   =      2    0-nonsym 1-usesym 2-fastsym
   LCORR  =      T    Harris-Foulkes like correction to forces

   POTIM  = 0.5000    time-step for ionic-motion
   TEIN   =    0.0    initial temperature
   TEBEG  =    0.0;   TEEND  =   0.0 temperature during run
   SMASS  =  -3.00    Nose mass-parameter (am)
   estimated Nose-frequenzy (Omega)   =  0.10E-29 period in steps =****** mass=  -0.695E-27a.u.
   SCALEE = 1.0000    scale energy and forces
   NPACO  =    256;   APACO  = 16.0  distance and # of slots for P.C.
   PSTRESS=    0.0 pullay stress

  Mass of Ions in am
   POMASS = 208.98 16.00 55.85
  Ionic Valenz
   ZVAL   =  15.00  6.00 14.00
  Atomic Wigner-Seitz radii
   RWIGS  =  -1.00 -1.00 -1.00
  virtual crystal weights 
   VCA    =   1.00  1.00  1.00
   NELECT =      94.0000    total number of electrons
   NUPDOWN=      -1.0000    fix difference up-down

 DOS related values:
   EMIN   =  10.00;   EMAX   =-10.00  energy-range for DOS
   EFERMI =   0.00
   ISMEAR =     0;   SIGMA  =   0.05  broadening in eV -4-tet -1-fermi 0-gaus

 Electronic relaxation 2 (details)
   IALGO  =     38    algorithm
   LDIAG  =      T    sub-space diagonalisation (order eigenvalues)
   LSUBROT=      F    optimize rotation matrix (better conditioning)
   TURBO    =      0    0=normal 1=particle mesh
   IRESTART =      0    0=no restart 2=restart with 2 vectors
   NREBOOT  =      0    no. of reboots
   NMIN     =      0    reboot dimension
   EREF     =   0.00    reference energy to select bands
   IMIX   =      4    mixing-type and parameters
     AMIX     =   0.40;   BMIX     =  1.00
     AMIX_MAG =   1.60;   BMIX_MAG =  1.00
     AMIN     =   0.10
     WC   =   100.;   INIMIX=   1;  MIXPRE=   1;  MAXMIX= -45

 Intra band minimization:
   WEIMIN = 0.0000     energy-eigenvalue tresh-hold
   EBREAK =  0.45E-09  absolut break condition
   DEPER  =   0.30     relativ break condition  

   TIME   =   0.40     timestep for ELM

  volume/ion in A,a.u.               =      11.82        79.75
  Fermi-wavevector in a.u.,A,eV,Ry     =   1.516838  2.866408 31.304251  2.300798
  Thomas-Fermi vector in A             =   2.626174
 
 Write flags
   LWAVE  =      F    write WAVECAR
   LCHARG =      T    write CHGCAR
   LVTOT  =      F    write LOCPOT, total local potential
   LVHAR  =      F    write LOCPOT, Hartree potential only
   LELF   =      F    write electronic localiz. function (ELF)
   LORBIT =     11    0 simple, 1 ext, 2 COOP (PROOUT)


 Dipole corrections
   LMONO  =      F    monopole corrections only (constant potential shift)
   LDIPOL =      F    correct potential (dipole corrections)
   IDIPOL =      0    1-x, 2-y, 3-z, 4-all directions 
   EPSILON=  1.0000000 bulk dielectric constant

 LDA+U is selected, type is set to LDAUTYPE =  2
   angular momentum for each species LDAUL =    -1   -1    2
   U (eV)           for each species LDAUU =   0.0  0.0  3.0
   J (eV)           for each species LDAUJ =   0.0  0.0  0.0
 Exchange correlation treatment:
   GGA     =    --    GGA type
   LEXCH   =     2    internal setting for exchange type
   VOSKOWN=      0    Vosko Wilk Nusair interpolation
   LHFCALC =     F    Hartree Fock is set to
   LHFONE  =     F    Hartree Fock one center treatment
   AEXX    =    0.0000 exact exchange contribution

 Linear response parameters
   LEPSILON=     F    determine dielectric tensor
   LRPA    =     F    only Hartree local field effects (RPA)
   LNABLA  =     F    use nabla operator in PAW spheres
   LVEL    =     F    velocity operator in full k-point grid
   LINTERFAST=   F  fast interpolation
   KINTER  =     0    interpolate to denser k-point grid
   CSHIFT  =0.1000    complex shift for real part using Kramers Kronig
   OMEGAMAX=  -1.0    maximum frequency
   DEG_THRESHOLD= 0.2000000E-02 threshold for treating states as degnerate
   RTIME   =    0.100 relaxation time in fs

 Orbital magnetization related:
   ORBITALMAG=     F  switch on orbital magnetization
   LCHIMAG   =     F  perturbation theory with respect to B field
   DQ        =  0.001000  dq finite difference perturbation B field

 PEAD related settings:
   LPEAD      =     T    switch on PEAD
   IPEAD      =     4    finite difference order for dpsi/dk
   LCALCPOL   =     T    calculate macroscopic polarization
   LCALCEPS   =     F    calculate dielectric tensor
   EFIELD_PEAD=    0.0000    0.0000    0.0000
   SKIP_EDOTP =     F
   LRPA       =     F
   SKIP_SCF   =     F


--------------------------------------------------------------------------------------------------------


 Static calculation
 charge density and potential will be updated during run
 spin polarized calculation
 Variant of blocked Davidson
 Davidson routine will perform the subspace rotation
 perform sub-space diagonalisation
    after iterative eigenvector-optimisation
 modified Broyden-mixing scheme, WC =      100.0
 initial mixing is a Kerker type mixing with AMIX =  0.4000 and BMIX =      1.0000
 Hartree-type preconditioning will be used
 using additional bands            9
 reciprocal scheme for non local part
 use partial core corrections
 calculate Harris-corrections to forces 
   (improved forces if not selfconsistent)
 use of overlap-Matrix (Vanderbilt PP)
 Gauss-broadening in eV      SIGMA  =   0.05


--------------------------------------------------------------------------------------------------------


  energy-cutoff  :      520.00
  volume of cell :      118.18
      direct lattice vectors                 reciprocal lattice vectors
     5.515657543  0.008016856  0.005668345     0.181531204 -0.105113221 -0.074320656
     2.765604383  4.772208588  0.005668345    -0.000228513  0.209767288 -0.074320656
     2.765604383  1.596400712  4.497278254    -0.000228513 -0.000131905  0.222544057

  length of vectors
     5.515666282  5.515666282  5.515666282     0.222544214  0.222544214  0.222544214


 
 k-points in units of 2pi/SCALE and weight: Gamma centred mesh                      
   0.00000000  0.00000000  0.00000000       0.002
   0.02269140 -0.01313915 -0.00929008       0.012
   0.04538280 -0.02627831 -0.01858016       0.012
   0.06807420 -0.03941746 -0.02787025       0.012
   0.09076560 -0.05255661 -0.03716033       0.006
   0.02266284  0.01308176 -0.01858016       0.012
   0.04535424 -0.00005739 -0.02787025       0.012
   0.06804564 -0.01319655 -0.03716033       0.012
   0.09073704 -0.02633570 -0.04645041       0.012
  -0.06810277  0.06563837  0.01858016       0.012
  -0.04541137  0.05249922  0.00929008       0.012
  -0.02271996  0.03936006 -0.00000000       0.012
   0.02263427  0.03930267 -0.02787025       0.012
   0.04532567  0.02616352 -0.03716033       0.012
   0.06801707  0.01302436 -0.04645041       0.012
   0.09070847 -0.00011479 -0.05574049       0.012
  -0.06813133  0.09185928  0.00929008       0.012
  -0.04543993  0.07872013 -0.00000000       0.012
  -0.02274853  0.06558097 -0.00929008       0.012
   0.02260571  0.06552358 -0.03716033       0.012
   0.04529711  0.05238443 -0.04645041       0.012
   0.06798851  0.03924527 -0.05574049       0.012
   0.09067991  0.02610612 -0.06503057       0.012
  -0.06815989  0.11808019 -0.00000000       0.012
  -0.04546849  0.10494104 -0.00929008       0.012
  -0.02277709  0.09180189 -0.01858016       0.012
   0.02257714  0.09174449 -0.04645041       0.012
   0.04526854  0.07860534 -0.05574049       0.012
   0.06795994  0.06546619 -0.06503057       0.012
   0.09065135  0.05232703 -0.07432066       0.006
   0.02263427  0.01306527  0.00923784       0.004
   0.04532567 -0.00007388 -0.00005224       0.012
   0.06801707 -0.01321304 -0.00934232       0.012
   0.09070847 -0.02635219 -0.01863240       0.012
  -0.06813133  0.06562188  0.04639817       0.012
  -0.04543993  0.05248273  0.03710809       0.012
  -0.02274853  0.03934358  0.02781801       0.012
   0.04529711  0.02614703 -0.00934232       0.012
   0.06798851  0.01300788 -0.01863240       0.012
   0.09067991 -0.00013128 -0.02792248       0.012
  -0.06815989  0.09184279  0.03710809       0.012
  -0.04546849  0.07870364  0.02781801       0.012
  -0.02277709  0.06556449  0.01852793       0.012
   0.04526854  0.05236794 -0.01863240       0.012
   0.06795994  0.03922879 -0.02792248       0.012
   0.09065135  0.02608963 -0.03721257       0.012
  -0.06818846  0.11806370  0.02781801       0.012
  -0.04549706  0.10492455  0.01852793       0.012
  -0.02280566  0.09178540  0.00923784       0.012
   0.04523998  0.07858885 -0.02792248       0.012
   0.06793138  0.06544970 -0.03721257       0.012
   0.09062278  0.05231055 -0.04650265       0.012
  -0.06821702  0.14428461  0.01852793       0.012
  -0.04552562  0.13114546  0.00923784       0.012
  -0.02283422  0.11800631 -0.00005224       0.012
   0.04543993 -0.10495753  0.03710809       0.012
   0.06813133 -0.11809668  0.02781801       0.012
   0.09082273 -0.13123583  0.01852793       0.012
  -0.06801707 -0.03926176  0.08355850       0.012
  -0.04532567 -0.05240092  0.07426842       0.012
  -0.02263427 -0.06554007  0.06497834       0.012
   0.04541137 -0.07873662  0.02781801       0.012
   0.06810277 -0.09187577  0.01852793       0.012
   0.09079417 -0.10501492  0.00923784       0.012
  -0.06804564 -0.01304085  0.07426842       0.012
  -0.04535424 -0.02618000  0.06497834       0.012
  -0.02266284 -0.03931916  0.05568825       0.012
   0.04526854  0.02613054  0.01847569       0.004
   0.06795994  0.01299139  0.00918560       0.012
   0.09065135 -0.00014777 -0.00010448       0.012
  -0.06818846  0.09182630  0.06492610       0.012
  -0.04549706  0.07868715  0.05563601       0.012
   0.06793138  0.03921230 -0.00010448       0.012
   0.09062278  0.02607315 -0.00939456       0.012
  -0.06821702  0.11804721  0.05563601       0.012
  -0.04552562  0.10490806  0.04634593       0.012
   0.06790282  0.06543321 -0.00939456       0.012
   0.09059422  0.05229406 -0.01868464       0.012
  -0.06824559  0.14426813  0.04634593       0.012
  -0.04555419  0.13112897  0.03705585       0.012
   0.06810277 -0.11811317  0.05563601       0.012
   0.09079417 -0.13125232  0.04634593       0.012
  -0.06804564 -0.03927825  0.11137651       0.012
  -0.04535424 -0.05241740  0.10208642       0.012
   0.06790282  0.03919581  0.02771353       0.004
   0.09059422  0.02605666  0.01842345       0.012
  -0.06824559  0.11803073  0.08345402       0.012
   0.09056565  0.05227757  0.00913337       0.012
  -0.06827415  0.14425164  0.07416394       0.012
   0.09053709  0.05226108  0.03695137       0.002
 
 k-points in reciprocal lattice and weights: Gamma centred mesh                      
   0.00000000  0.00000000  0.00000000       0.002
   0.12500000  0.00000000  0.00000000       0.012
   0.25000000  0.00000000  0.00000000       0.012
   0.37500000  0.00000000  0.00000000       0.012
   0.50000000  0.00000000  0.00000000       0.006
   0.12500000  0.12500000  0.00000000       0.012
   0.25000000  0.12500000  0.00000000       0.012
   0.37500000  0.12500000  0.00000000       0.012
   0.50000000  0.12500000  0.00000000       0.012
  -0.37500000  0.12500000 -0.00000000       0.012
  -0.25000000  0.12500000 -0.00000000       0.012
  -0.12500000  0.12500000 -0.00000000       0.012
   0.12500000  0.25000000  0.00000000       0.012
   0.25000000  0.25000000  0.00000000       0.012
   0.37500000  0.25000000  0.00000000       0.012
   0.50000000  0.25000000  0.00000000       0.012
  -0.37500000  0.25000000 -0.00000000       0.012
  -0.25000000  0.25000000 -0.00000000       0.012
  -0.12500000  0.25000000  0.00000000       0.012
   0.12500000  0.37500000  0.00000000       0.012
   0.25000000  0.37500000  0.00000000       0.012
   0.37500000  0.37500000  0.00000000       0.012
   0.50000000  0.37500000  0.00000000       0.012
  -0.37500000  0.37500000  0.00000000       0.012
  -0.25000000  0.37500000  0.00000000       0.012
  -0.12500000  0.37500000  0.00000000       0.012
   0.12500000  0.50000000  0.00000000       0.012
   0.25000000  0.50000000  0.00000000       0.012
   0.37500000  0.50000000  0.00000000       0.012
   0.50000000  0.50000000  0.00000000       0.006
   0.12500000  0.12500000  0.12500000       0.004
   0.25000000  0.12500000  0.12500000       0.012
   0.37500000  0.12500000  0.12500000       0.012
   0.50000000  0.12500000  0.12500000       0.012
  -0.37500000  0.12500000  0.12500000       0.012
  -0.25000000  0.12500000  0.12500000       0.012
  -0.12500000  0.12500000  0.12500000       0.012
   0.25000000  0.25000000  0.12500000       0.012
   0.37500000  0.25000000  0.12500000       0.012
   0.50000000  0.25000000  0.12500000       0.012
  -0.37500000  0.25000000  0.12500000       0.012
  -0.25000000  0.25000000  0.12500000       0.012
  -0.12500000  0.25000000  0.12500000       0.012
   0.25000000  0.37500000  0.12500000       0.012
   0.37500000  0.37500000  0.12500000       0.012
   0.50000000  0.37500000  0.12500000       0.012
  -0.37500000  0.37500000  0.12500000       0.012
  -0.25000000  0.37500000  0.12500000       0.012
  -0.12500000  0.37500000  0.12500000       0.012
   0.25000000  0.50000000  0.12500000       0.012
   0.37500000  0.50000000  0.12500000       0.012
   0.50000000  0.50000000  0.12500000       0.012
  -0.37500000  0.50000000  0.12500000       0.012
  -0.25000000  0.50000000  0.12500000       0.012
  -0.12500000  0.50000000  0.12500000       0.012
   0.25000000 -0.37500000  0.12500000       0.012
   0.37500000 -0.37500000  0.12500000       0.012
   0.50000000 -0.37500000  0.12500000       0.012
  -0.37500000 -0.37500000  0.12500000       0.012
  -0.25000000 -0.37500000  0.12500000       0.012
  -0.12500000 -0.37500000  0.12500000       0.012
   0.25000000 -0.25000000  0.12500000       0.012
   0.37500000 -0.25000000  0.12500000       0.012
   0.50000000 -0.25000000  0.12500000       0.012
  -0.37500000 -0.25000000  0.12500000       0.012
  -0.25000000 -0.25000000  0.12500000       0.012
  -0.12500000 -0.25000000  0.12500000       0.012
   0.25000000  0.25000000  0.25000000       0.004
   0.37500000  0.25000000  0.25000000       0.012
   0.50000000  0.25000000  0.25000000       0.012
  -0.37500000  0.25000000  0.25000000       0.012
  -0.25000000  0.25000000  0.25000000       0.012
   0.37500000  0.37500000  0.25000000       0.012
   0.50000000  0.37500000  0.25000000       0.012
  -0.37500000  0.37500000  0.25000000       0.012
  -0.25000000  0.37500000  0.25000000       0.012
   0.37500000  0.50000000  0.25000000       0.012
   0.50000000  0.50000000  0.25000000       0.012
  -0.37500000  0.50000000  0.25000000       0.012
  -0.25000000  0.50000000  0.25000000       0.012
   0.37500000 -0.37500000  0.25000000       0.012
   0.50000000 -0.37500000  0.25000000       0.012
  -0.37500000 -0.37500000  0.25000000       0.012
  -0.25000000 -0.37500000  0.25000000       0.012
   0.37500000  0.37500000  0.37500000       0.004
   0.50000000  0.37500000  0.37500000       0.012
  -0.37500000  0.37500000  0.37500000       0.012
   0.50000000  0.50000000  0.37500000       0.012
  -0.37500000  0.50000000  0.37500000       0.012
   0.50000000  0.50000000  0.50000000       0.002
 
 position of ions in fractional coordinates (direct lattice) 
   0.00053925  0.00053925  0.00053925
   0.50053925  0.50053925  0.50053925
   0.54052771  0.94264218  0.39703236
   0.39703236  0.54052771  0.94264218
   0.94264218  0.39703236  0.54052771
   0.44264218  0.04052771  0.89703239
   0.04052771  0.89703239  0.44264218
   0.89703239  0.44264218  0.04052771
   0.22725846  0.22725846  0.22725846
   0.72725845  0.72725845  0.72725845
 
 position of ions in cartesian coordinates  (Angst):
   0.00595705  0.00343861  0.00243128
   5.52939020  3.19175169  2.25673875
   6.68637552  5.13664117  1.79397213
   6.29175569  4.08752857  4.24463858
   7.79221168  2.76517710  2.43849725
   5.03438299  1.62897844  4.03694305
   3.92854683  4.98778488  1.99599945
   6.28398024  2.18427064  0.18985813
   2.51049387  1.44914226  1.02462091
   8.03392686  4.63745525  3.27892831
 


--------------------------------------------------------------------------------------------------------


 k-point  1 :   0.0000 0.0000 0.0000  plane waves:    3143
 k-point  2 :   0.1250 0.0000 0.0000  plane waves:    3185
 k-point  3 :   0.2500 0.0000 0.0000  plane waves:    3187
 k-point  4 :   0.3750 0.0000 0.0000  plane waves:    3177
 k-point  5 :   0.5000 0.0000 0.0000  plane waves:    3178
 k-point  6 :   0.1250 0.1250 0.0000  plane waves:    3192
 k-point  7 :   0.2500 0.1250 0.0000  plane waves:    3189
 k-point  8 :   0.3750 0.1250 0.0000  plane waves:    3177
 k-point  9 :   0.5000 0.1250 0.0000  plane waves:    3180
 k-point 10 :  -0.3750 0.1250-0.0000  plane waves:    3182
 k-point 11 :  -0.2500 0.1250-0.0000  plane waves:    3181
 k-point 12 :  -0.1250 0.1250-0.0000  plane waves:    3190
 k-point 13 :   0.1250 0.2500 0.0000  plane waves:    3189
 k-point 14 :   0.2500 0.2500 0.0000  plane waves:    3186
 k-point 15 :   0.3750 0.2500 0.0000  plane waves:    3180
 k-point 16 :   0.5000 0.2500 0.0000  plane waves:    3182
 k-point 17 :  -0.3750 0.2500-0.0000  plane waves:    3179
 k-point 18 :  -0.2500 0.2500-0.0000  plane waves:    3164
 k-point 19 :  -0.1250 0.2500 0.0000  plane waves:    3181
 k-point 20 :   0.1250 0.3750 0.0000  plane waves:    3177
 k-point 21 :   0.2500 0.3750 0.0000  plane waves:    3180
 k-point 22 :   0.3750 0.3750 0.0000  plane waves:    3187
 k-point 23 :   0.5000 0.3750 0.0000  plane waves:    3193
 k-point 24 :  -0.3750 0.3750 0.0000  plane waves:    3200
 k-point 25 :  -0.2500 0.3750 0.0000  plane waves:    3179
 k-point 26 :  -0.1250 0.3750 0.0000  plane waves:    3182
 k-point 27 :   0.1250 0.5000 0.0000  plane waves:    3180
 k-point 28 :   0.2500 0.5000 0.0000  plane waves:    3182
 k-point 29 :   0.3750 0.5000 0.0000  plane waves:    3193
 k-point 30 :   0.5000 0.5000 0.0000  plane waves:    3226
 k-point 31 :   0.1250 0.1250 0.1250  plane waves:    3185
 k-point 32 :   0.2500 0.1250 0.1250  plane waves:    3188
 k-point 33 :   0.3750 0.1250 0.1250  plane waves:    3177
 k-point 34 :   0.5000 0.1250 0.1250  plane waves:    3183
 k-point 35 :  -0.3750 0.1250 0.1250  plane waves:    3179
 k-point 36 :  -0.2500 0.1250 0.1250  plane waves:    3183
 k-point 37 :  -0.1250 0.1250 0.1250  plane waves:    3185
 k-point 38 :   0.2500 0.2500 0.1250  plane waves:    3187
 k-point 39 :   0.3750 0.2500 0.1250  plane waves:    3180
 k-point 40 :   0.5000 0.2500 0.1250  plane waves:    3175
 k-point 41 :  -0.3750 0.2500 0.1250  plane waves:    3178
 k-point 42 :  -0.2500 0.2500 0.1250  plane waves:    3179
 k-point 43 :  -0.1250 0.2500 0.1250  plane waves:    3184
 k-point 44 :   0.2500 0.3750 0.1250  plane waves:    3180
 k-point 45 :   0.3750 0.3750 0.1250  plane waves:    3177
 k-point 46 :   0.5000 0.3750 0.1250  plane waves:    3177
 k-point 47 :  -0.3750 0.3750 0.1250  plane waves:    3183
 k-point 48 :  -0.2500 0.3750 0.1250  plane waves:    3178
 k-point 49 :  -0.1250 0.3750 0.1250  plane waves:    3183
 k-point 50 :   0.2500 0.5000 0.1250  plane waves:    3175
 k-point 51 :   0.3750 0.5000 0.1250  plane waves:    3177
 k-point 52 :   0.5000 0.5000 0.1250  plane waves:    3188
 k-point 53 :  -0.3750 0.5000 0.1250  plane waves:    3185
 k-point 54 :  -0.2500 0.5000 0.1250  plane waves:    3183
 k-point 55 :  -0.1250 0.5000 0.1250  plane waves:    3178
 k-point 56 :   0.2500-0.3750 0.1250  plane waves:    3178
 k-point 57 :   0.3750-0.3750 0.1250  plane waves:    3183
 k-point 58 :   0.5000-0.3750 0.1250  plane waves:    3185
 k-point 59 :  -0.3750-0.3750 0.1250  plane waves:    3185
 k-point 60 :  -0.2500-0.3750 0.1250  plane waves:    3179
 k-point 61 :  -0.1250-0.3750 0.1250  plane waves:    3183
 k-point 62 :   0.2500-0.2500 0.1250  plane waves:    3179
 k-point 63 :   0.3750-0.2500 0.1250  plane waves:    3178
 k-point 64 :   0.5000-0.2500 0.1250  plane waves:    3183
 k-point 65 :  -0.3750-0.2500 0.1250  plane waves:    3179
 k-point 66 :  -0.2500-0.2500 0.1250  plane waves:    3179
 k-point 67 :  -0.1250-0.2500 0.1250  plane waves:    3184
 k-point 68 :   0.2500 0.2500 0.2500  plane waves:    3185
 k-point 69 :   0.3750 0.2500 0.2500  plane waves:    3178
 k-point 70 :   0.5000 0.2500 0.2500  plane waves:    3155
 k-point 71 :  -0.3750 0.2500 0.2500  plane waves:    3181
 k-point 72 :  -0.2500 0.2500 0.2500  plane waves:    3182
 k-point 73 :   0.3750 0.3750 0.2500  plane waves:    3180
 k-point 74 :   0.5000 0.3750 0.2500  plane waves:    3180
 k-point 75 :  -0.3750 0.3750 0.2500  plane waves:    3181
 k-point 76 :  -0.2500 0.3750 0.2500  plane waves:    3180
 k-point 77 :   0.3750 0.5000 0.2500  plane waves:    3180
 k-point 78 :   0.5000 0.5000 0.2500  plane waves:    3185
 k-point 79 :  -0.3750 0.5000 0.2500  plane waves:    3182
 k-point 80 :  -0.2500 0.5000 0.2500  plane waves:    3184
 k-point 81 :   0.3750-0.3750 0.2500  plane waves:    3181
 k-point 82 :   0.5000-0.3750 0.2500  plane waves:    3182
 k-point 83 :  -0.3750-0.3750 0.2500  plane waves:    3200
 k-point 84 :  -0.2500-0.3750 0.2500  plane waves:    3180
 k-point 85 :   0.3750 0.3750 0.3750  plane waves:    3188
 k-point 86 :   0.5000 0.3750 0.3750  plane waves:    3178
 k-point 87 :  -0.3750 0.3750 0.3750  plane waves:    3177
 k-point 88 :   0.5000 0.5000 0.3750  plane waves:    3174
 k-point 89 :  -0.3750 0.5000 0.3750  plane waves:    3176
 k-point 90 :   0.5000 0.5000 0.5000  plane waves:    3184

 maximum and minimum number of plane-waves per node :      3226     3143

 maximum number of plane-waves:      3226
 maximum index in each direction: 
[...]
     47       6.8127      1.00000
     48       8.6567      0.00000
     49       8.8610      0.00000
     50       8.8920      0.00000
     51       9.9493      0.00000
     52      10.1625      0.00000
     53      10.4605      0.00000
     54      10.7152      0.00000
     55      11.8519      0.00000
     56      11.9147      0.00000

 k-point    90 :       0.5000    0.5000    0.5000
  band No.  band energies     occupation 
      1     -48.7590      1.00000
      2     -48.7038      1.00000
      3     -48.7038      1.00000
      4     -44.5554      1.00000
      5     -44.5091      1.00000
      6     -44.5091      1.00000
      7     -15.3163      1.00000
      8     -15.3163      1.00000
      9     -15.3132      1.00000
     10     -15.3132      1.00000
     11     -15.2634      1.00000
     12     -15.2620      1.00000
     13     -15.2277      1.00000
     14     -15.2277      1.00000
     15     -15.2262      1.00000
     16     -15.2262      1.00000
     17     -11.2147      1.00000
     18     -11.1373      1.00000
     19      -9.9529      1.00000
     20      -9.9529      1.00000
     21      -9.8258      1.00000
     22      -9.8258      1.00000
     23      -2.9106      1.00000
     24      -2.8590      1.00000
     25       0.6601      1.00000
     26       0.6601      1.00000
     27       1.1839      1.00000
     28       1.1839      1.00000
     29       1.2604      1.00000
     30       1.7915      1.00000
     31       1.9553      1.00000
     32       1.9553      1.00000
     33       2.6648      1.00000
     34       3.1756      1.00000
     35       3.1756      1.00000
     36       3.8533      1.00000
     37       3.8533      1.00000
     38       4.0067      1.00000
     39       4.2842      1.00000
     40       4.6797      1.00000
     41       4.6797      1.00000
     42       4.9738      1.00000
     43       4.9738      1.00000
     44       6.1789      1.00000
     45       6.6809      1.00000
     46       6.7413      1.00000
     47       6.7413      1.00000
     48       8.5682      0.00000
     49       8.8417      0.00000
     50       8.8417      0.00000
     51      10.1445      0.00000
     52      10.1445      0.00000
     53      10.2188      0.00000
     54      10.5478      0.00000
     55      12.4274      0.00000
     56      12.4469      0.00000


--------------------------------------------------------------------------------------------------------


 soft charge-density along one line, spin component           1
         0         1         2         3         4         5         6         7         8         9
 total charge-density along one line
 
 soft charge-density along one line, spin component           2
         0         1         2         3         4         5         6         7         8         9
 total charge-density along one line
 
 pseudopotential strength for first ion, spin component:           1
-16.686   0.004  -0.008   0.003  -0.002   3.322  -0.002   0.004
  0.004 -16.693  -0.003   0.002  -0.003  -0.002   3.326   0.002
 -0.008  -0.003 -16.680   0.010   0.002   0.004   0.002   3.319
  0.003   0.002   0.010 -16.675  -0.003  -0.001  -0.001  -0.005
 -0.002  -0.003   0.002  -0.003 -16.669   0.001   0.002  -0.001
  3.322  -0.002   0.004  -0.001   0.001   6.192   0.001  -0.002
 -0.002   3.326   0.002  -0.001   0.002   0.001   6.190  -0.000
  0.004   0.002   3.319  -0.005  -0.001  -0.002  -0.000   6.192
 -0.001  -0.001  -0.005   3.316   0.002   0.001   0.001   0.002
  0.001   0.002  -0.001   0.002   3.313  -0.000  -0.001  -0.000
  0.003   0.001  -0.001   0.002   0.002   0.000   0.000  -0.000
 -0.004  -0.002   0.002  -0.003  -0.003   0.000   0.000  -0.000
  0.013   0.005  -0.004   0.000  -0.007  -0.001  -0.001   0.001
  0.000   0.007   0.006   0.012   0.000   0.000  -0.001  -0.001
  0.007   0.000  -0.007   0.005   0.013  -0.001   0.000   0.001
  0.021   0.008  -0.006   0.000  -0.012   0.000   0.000  -0.000
  0.000   0.013   0.010   0.020   0.000   0.000   0.000  -0.000
  0.012   0.000  -0.013   0.009   0.021   0.001   0.000  -0.000
 pseudopotential strength for first ion, spin component:           2
-16.686   0.004  -0.007   0.003  -0.001   3.322  -0.002   0.003
  0.004 -16.692  -0.004   0.002  -0.003  -0.002   3.325   0.002
 -0.007  -0.004 -16.680   0.010   0.003   0.003   0.002   3.319
  0.003   0.002   0.010 -16.675  -0.003  -0.001  -0.000  -0.005
 -0.001  -0.003   0.003  -0.003 -16.669   0.001   0.002  -0.002
  3.322  -0.002   0.003  -0.001   0.001   6.193   0.001  -0.002
 -0.002   3.325   0.002  -0.000   0.002   0.001   6.191  -0.000
  0.003   0.002   3.319  -0.005  -0.002  -0.002  -0.000   6.192
 -0.001  -0.000  -0.005   3.316   0.002   0.001   0.001   0.001
  0.001   0.002  -0.002   0.002   3.313  -0.000  -0.001  -0.000
  0.003   0.001  -0.001   0.002   0.002   0.000   0.000  -0.000
 -0.004  -0.002   0.002  -0.003  -0.003  -0.000  -0.000   0.000
  0.013   0.005  -0.004   0.000  -0.007  -0.002  -0.001   0.001
  0.000   0.007   0.006   0.012   0.000   0.000  -0.001  -0.001
  0.007   0.000  -0.007   0.005   0.012  -0.001   0.000   0.001
  0.021   0.008  -0.006   0.000  -0.012  -0.000  -0.000   0.000
  0.000   0.012   0.010   0.020   0.000   0.000  -0.000  -0.000
  0.012   0.000  -0.012   0.009   0.021   0.000   0.000  -0.000
 total augmentation occupancy for first ion, spin component:           1
  2.001   0.000  -0.000   0.000   0.000   0.000   0.000  -0.000   0.000   0.000   0.001   0.001  -0.020  -0.001  -0.010   0.008
  0.000   2.000   0.000   0.000   0.000   0.000  -0.000   0.001   0.001   0.000   0.000   0.001  -0.004  -0.014  -0.001   0.004
 -0.000   0.000   2.000  -0.000  -0.000  -0.000   0.001  -0.002  -0.001  -0.001  -0.000  -0.001   0.003  -0.009   0.013  -0.003
  0.000   0.000  -0.000   2.000   0.000   0.000   0.001  -0.001  -0.002   0.001   0.000   0.001  -0.001  -0.014  -0.009  -0.000
  0.000   0.000  -0.000   0.000   2.000   0.000   0.000  -0.001   0.001  -0.003   0.000   0.001   0.008  -0.002  -0.017  -0.005
  0.000   0.000  -0.000   0.000   0.000   0.028   0.003  -0.005   0.003  -0.003   0.010  -0.003   0.065   0.011   0.020  -0.008
  0.000  -0.000   0.001   0.001   0.000   0.003   0.027  -0.009  -0.005  -0.003   0.004  -0.001  -0.009   0.050   0.011   0.001
 -0.000   0.001  -0.002  -0.001  -0.001  -0.005  -0.009   0.049   0.016   0.010  -0.005   0.002   0.003   0.036  -0.048   0.000
  0.000   0.001  -0.001  -0.002   0.001   0.003  -0.005   0.016   0.051  -0.011   0.007  -0.002   0.009   0.021   0.031  -0.001
  0.000   0.000  -0.001   0.001  -0.003  -0.003  -0.003   0.010  -0.011   0.061   0.006  -0.002  -0.020   0.017   0.041   0.002
  0.001   0.000  -0.000   0.000   0.000   0.010   0.004  -0.005   0.007   0.006   2.072  -0.021  -0.061  -0.043  -0.106   0.002
  0.001   0.001  -0.001   0.001   0.001  -0.003  -0.001   0.002  -0.002  -0.002  -0.021   0.035   0.038   0.027   0.067  -0.004
 -0.020  -0.004   0.003  -0.001   0.008   0.065  -0.009   0.003   0.009  -0.020  -0.061   0.038   0.932   0.014   0.035  -0.095
 -0.001  -0.014  -0.009  -0.014  -0.002   0.011   0.050   0.036   0.021   0.017  -0.043   0.027   0.014   0.922   0.024  -0.001
 -0.010  -0.001   0.013  -0.009  -0.017   0.020   0.011  -0.048   0.031   0.041  -0.106   0.067   0.035   0.024   0.972  -0.003
  0.008   0.004  -0.003  -0.000  -0.005  -0.008   0.001   0.000  -0.001   0.002   0.002  -0.004  -0.095  -0.001  -0.003   0.012
 -0.000   0.004   0.003   0.009  -0.000  -0.002  -0.006  -0.004  -0.003  -0.002   0.001  -0.002  -0.001  -0.094  -0.002   0.000
  0.005  -0.000  -0.004   0.003   0.008  -0.003  -0.002   0.006  -0.004  -0.005   0.003  -0.006  -0.003  -0.002  -0.098   0.000
 total augmentation occupancy for first ion, spin component:           2
 -0.000  -0.000   0.000  -0.000   0.000  -0.000  -0.000   0.000  -0.000  -0.000  -0.000  -0.000   0.000  -0.000   0.000   0.000
 -0.000   0.000  -0.000  -0.000   0.000  -0.000  -0.000   0.000  -0.000   0.000  -0.000  -0.000   0.000   0.000  -0.000   0.000
  0.000  -0.000  -0.000  -0.000   0.000   0.000   0.000  -0.000   0.000   0.000   0.000   0.000   0.000  -0.000  -0.000  -0.000
 -0.000  -0.000  -0.000  -0.000  -0.000  -0.000  -0.000   0.000  -0.000  -0.000  -0.000  -0.000   0.000   0.000   0.000  -0.000
  0.000   0.000   0.000  -0.000  -0.000  -0.000   0.000   0.000  -0.000  -0.000  -0.000  -0.000  -0.000   0.000   0.000  -0.000
 -0.000  -0.000   0.000  -0.000  -0.000   0.000   0.000   0.000  -0.000   0.000   0.000  -0.000  -0.001   0.001  -0.001   0.000
 -0.000  -0.000   0.000  -0.000   0.000   0.000   0.000  -0.000  -0.000  -0.000   0.000  -0.000  -0.002  -0.000   0.000   0.000
  0.000   0.000  -0.000   0.000   0.000   0.000  -0.000   0.000  -0.000   0.000  -0.000   0.000   0.000   0.000   0.001   0.000
 -0.000  -0.000   0.000  -0.000  -0.000  -0.000  -0.000  -0.000   0.000  -0.000   0.000  -0.000  -0.000  -0.002  -0.000   0.000
 -0.000   0.000   0.000  -0.000  -0.000   0.000  -0.000   0.000  -0.000   0.000   0.000  -0.000   0.001  -0.000  -0.001   0.000
 -0.000  -0.000   0.000  -0.000  -0.000   0.000   0.000  -0.000   0.000   0.000   0.000  -0.000   0.003   0.002   0.005   0.000
 -0.000  -0.000   0.000  -0.000  -0.000  -0.000  -0.000   0.000  -0.000  -0.000  -0.000   0.000  -0.001  -0.001  -0.002   0.000
  0.000   0.000   0.000   0.000  -0.000  -0.001  -0.002   0.000  -0.000   0.001   0.003  -0.001  -0.002  -0.002  -0.005  -0.000
 -0.000   0.000  -0.000   0.000   0.000   0.001  -0.000   0.000  -0.002  -0.000   0.002  -0.001  -0.002  -0.000  -0.003   0.000
  0.000  -0.000  -0.000   0.000   0.000  -0.001   0.000   0.001  -0.000  -0.001   0.005  -0.002  -0.005  -0.003  -0.008   0.000
  0.000   0.000  -0.000  -0.000  -0.000   0.000   0.000   0.000   0.000   0.000   0.000   0.000  -0.000   0.000   0.000   0.000
 -0.000   0.000  -0.000   0.000  -0.000  -0.000   0.000  -0.000   0.000   0.000   0.000   0.000   0.000  -0.000   0.000  -0.000
  0.000  -0.000  -0.000   0.000   0.000   0.000  -0.000  -0.000   0.000   0.000   0.000   0.000   0.000   0.000   0.000  -0.000


------------------------ aborting loop because EDIFF is reached ----------------------------------------


     CALCP:  cpu time  159.0583: real time  159.0190
 
            Ionic dipole moment: p[ion]=(   -10.31504    -5.95419    -4.20993 ) electrons Angst
 
    Spin resolved dipole moment: p[sp1]=(    -0.35341    -0.20400    -0.14424 ) electrons Angst
                                 p[sp2]=(     5.17069     2.98359     2.10947 ) electrons Angst
 
 Total electronic dipole moment: p[elc]=(     4.81727     2.77959     1.96523 ) electrons Angst
 
 
 


 total charge     
 
# of ion     s       p       d       tot
----------------------------------------
  1        1.654   0.873  10.031  12.558
  2        1.654   0.873  10.031  12.558
  3        1.562   3.451   0.000   5.013
  4        1.565   3.353   0.000   4.917
  5        1.563   3.460   0.000   5.023
  6        1.562   3.435   0.000   4.997
  7        1.565   3.353   0.000   4.918
  8        1.563   3.476   0.000   5.039
  9        0.312   6.397   5.781  12.490
 10        0.312   6.397   5.781  12.490
------------------------------------------------
tot       13.311  35.067  31.626  80.004
 


 magnetization (x)
 
# of ion     s       p       d       tot
----------------------------------------
  1        0.001  -0.004   0.001  -0.002
  2       -0.001   0.004  -0.001   0.002
  3        0.001   0.046   0.000   0.047
  4        0.001   0.048   0.000   0.049
  5        0.001   0.040   0.000   0.041
  6       -0.001  -0.045   0.000  -0.045
  7       -0.000  -0.051   0.000  -0.051
  8       -0.001  -0.039   0.000  -0.040
  9        0.007   0.015   3.926   3.948
 10       -0.007  -0.015  -3.926  -3.948
------------------------------------------------
tot       -0.000  -0.000   0.000  -0.000
 
    CHARGE:  cpu time    0.9684: real time    0.9680
    FORLOC:  cpu time    0.0059: real time    0.0059
    FORNL :  cpu time    8.6556: real time    8.6524
    STRESS:  cpu time   10.3512: real time   10.3574
    FORCOR:  cpu time    0.0216: real time    0.0216
    FORHAR:  cpu time    0.0116: real time    0.0116
    MIXING:  cpu time    0.0019: real time    0.0028
    OFIELD:  cpu time    0.0001: real time    0.0001

  FORCE on cell =-STRESS in cart. coord.  units (eV):
  Direction    XX          YY          ZZ          XY          YZ          ZX
  --------------------------------------------------------------------------------------
  Alpha Z   426.33323   426.33323   426.33323
  Ewald   -2877.84409 -2833.20671 -2822.05242   -38.64153   -15.77097   -27.32162
  Hartree   926.18017   954.88693   962.06037   -24.85077   -10.14248   -17.57082
  E(xc)    -495.54896  -495.55369  -495.55487     0.00410     0.00167     0.00290
  Local      60.63157   -13.98686   -32.63301    64.59542    26.36366    45.67241
  n-local    22.84821    22.26826    23.22371     0.86278     0.35268     1.05928
  augment   591.92173   593.21455   593.53761    -1.11917    -0.45677    -0.79131
  Kinetic  1346.54746  1345.56954  1344.48670     0.32806    -0.84657    -3.42518
  Fock        0.00000     0.00000     0.00000     0.00000     0.00000     0.00000
  -------------------------------------------------------------------------------------
  Total      -0.00207    -0.00114    -0.00091    -0.00080    -0.00033    -0.00057
  in kB      -0.02805    -0.01549    -0.01236    -0.01087    -0.00444    -0.00768
  external pressure =       -0.02 kB  Pullay stress =        0.00 kB


 VOLUME and BASIS-vectors are now :
 -----------------------------------------------------------------------------
  energy-cutoff  :      520.00
  volume of cell :      118.18
      direct lattice vectors                 reciprocal lattice vectors
     5.515657543  0.008016856  0.005668345     0.181531204 -0.105113221 -0.074320656
     2.765604383  4.772208588  0.005668345    -0.000228513  0.209767288 -0.074320656
     2.765604383  1.596400712  4.497278254    -0.000228513 -0.000131905  0.222544057

  length of vectors
     5.515666282  5.515666282  5.515666282     0.222544214  0.222544214  0.222544214


 FORCES acting on ions
    electron-ion (+dipol)            ewald-force                    non-local-force                 convergence-correction
 -----------------------------------------------------------------------------------------------
   0.175E+03 0.101E+03 0.716E+02   -.184E+03 -.106E+03 -.749E+02   0.814E+01 0.470E+01 0.332E+01   -.185E-02 -.107E-02 -.755E-03
   0.175E+03 0.101E+03 0.716E+02   -.184E+03 -.106E+03 -.749E+02   0.814E+01 0.470E+01 0.332E+01   -.223E-02 -.128E-02 -.908E-03
   -.369E+02 -.289E+02 0.320E+02   0.403E+02 0.317E+02 -.309E+02   -.344E+01 -.282E+01 -.108E+01   0.290E-03 0.540E-03 -.284E-03
   -.645E+00 -.423E+02 -.379E+02   0.406E+01 0.442E+02 0.402E+02   -.342E+01 -.200E+01 -.230E+01   0.689E-04 0.295E-03 0.604E-03
   -.434E+02 0.243E+02 -.272E+02   0.476E+02 -.228E+02 0.283E+02   -.416E+01 -.154E+01 -.112E+01   0.613E-03 -.274E-03 0.767E-04
   -.434E+02 -.175E+02 0.320E+02   0.476E+02 0.191E+02 -.309E+02   -.416E+01 -.157E+01 -.108E+01   -.670E-04 0.299E-04 -.436E-04
   -.369E+02 0.206E+02 -.379E+02   0.403E+02 -.186E+02 0.402E+02   -.344E+01 -.196E+01 -.230E+01   -.756E-05 -.654E-04 -.543E-04
   -.645E+00 -.498E+02 -.272E+02   0.406E+01 0.526E+02 0.283E+02   -.342E+01 -.283E+01 -.112E+01   -.604E-04 -.424E-04 0.428E-04
   -.902E+02 -.521E+02 -.368E+02   0.916E+02 0.529E+02 0.374E+02   -.136E+01 -.785E+00 -.555E+00   0.254E-02 0.146E-02 0.103E-02
   -.902E+02 -.521E+02 -.368E+02   0.916E+02 0.529E+02 0.374E+02   -.136E+01 -.785E+00 -.555E+00   0.200E-02 0.115E-02 0.816E-03
 -----------------------------------------------------------------------------------------------
   0.849E+01 0.490E+01 0.346E+01   0.568E-13 -.142E-13 -.711E-13   -.849E+01 -.490E+01 -.347E+01   0.130E-02 0.749E-03 0.529E-03
 
 
 POSITION                                       TOTAL-FORCE (eV/Angst)
 -----------------------------------------------------------------------------------
      0.00596      0.00344      0.00243         0.000367      0.000212      0.000150
      5.52939      3.19175      2.25674         0.000332      0.000192      0.000136
      6.68638      5.13664      1.79397        -0.000495     -0.000378      0.000479
      6.29176      4.08753      4.24464         0.000034     -0.000591     -0.000516
      7.79221      2.76518      2.43850        -0.000575      0.000372     -0.000385
      5.03438      1.62898      4.03694        -0.000547     -0.000247      0.000462
      3.92855      4.98778      1.99600        -0.000487      0.000319     -0.000484
      6.28398      2.18427      0.18986         0.000032     -0.000650     -0.000387
      2.51049      1.44914      1.02462         0.000678      0.000391      0.000277
      8.03393      4.63746      3.27893         0.000661      0.000381      0.000270
 -----------------------------------------------------------------------------------
    total drift:                               -0.002686     -0.001550     -0.001100


--------------------------------------------------------------------------------------------------------



  FREE ENERGIE OF THE ION-ELECTRON SYSTEM (eV)
  ---------------------------------------------------
  free  energy   TOTEN  =       -71.23738222 eV

  energy  without entropy=      -71.23738222  energy(sigma->0) =      -71.23738222
 


--------------------------------------------------------------------------------------------------------


    POTLOK:  cpu time    0.9105: real time    0.9109


--------------------------------------------------------------------------------------------------------


     LOOP+:  cpu time  456.2228: real time  457.7253
    4ORBIT:  cpu time    0.0000: real time    0.0000
 


 total charge     
 
# of ion     s       p       d       tot
----------------------------------------
  1        1.654   0.873  10.031  12.558
  2        1.654   0.873  10.031  12.558
  3        1.562   3.451   0.000   5.013
  4        1.565   3.353   0.000   4.917
  5        1.563   3.460   0.000   5.023
  6        1.562   3.435   0.000   4.997
  7        1.565   3.353   0.000   4.918
  8        1.563   3.476   0.000   5.039
  9        0.312   6.397   5.781  12.490
 10        0.312   6.397   5.781  12.490
------------------------------------------------
tot       13.311  35.067  31.626  80.004
 


 magnetization (x)
 
# of ion     s       p       d       tot
----------------------------------------
  1        0.001  -0.004   0.001  -0.002
  2       -0.001   0.004  -0.001   0.002
  3        0.001   0.046   0.000   0.047
  4        0.001   0.048   0.000   0.049
  5        0.001   0.040   0.000   0.041
  6       -0.001  -0.045   0.000  -0.045
  7       -0.000  -0.051   0.000  -0.051
  8       -0.001  -0.039   0.000  -0.040
  9        0.007   0.015   3.926   3.948
 10       -0.007  -0.015  -3.926  -3.948
------------------------------------------------
tot       -0.000  -0.000   0.000  -0.000
 

 total amount of memory used by VASP on root node   302292. kBytes
========================================================================

   base      :      30000. kBytes
   nonl-proj :     126021. kBytes
   fftplans  :       2401. kBytes
   grid      :       8568. kBytes
   one-center:        311. kBytes
   wavefun   :     134991. kBytes
 
  
  
 General timing and accounting informations for this job:
 ========================================================
  
                  Total CPU time used (sec):      466.672
                            User time (sec):      461.451
                          System time (sec):        5.221
                         Elapsed time (sec):      469.039
  
                   Maximum memory used (kb):      415272.
                   Average memory used (kb):           0.
  
                          Minor page faults:        73432
                          Major page faults:            0
                 Voluntary context switches:          443
