   10   10    1    2
  0.1283910E+02  0.5701994E-09  0.5701994E-09  0.5701994E-09  0.5000000E-15
  1.000000000000000E-004
  CAR 
 unknown system                          
     94    120     56
 
  0.5000000E+00  0.0000000E+00  0.0000000E+00  0.8333333E-02
    1      -51.851537    -51.846513   1.000000   1.000000
    2      -51.801080    -51.796313   1.000000   1.000000
    3      -51.801047    -51.796293   1.000000   1.000000
    4      -46.803682    -46.808629   1.000000   1.000000
    5      -46.765542    -46.770320   1.000000   1.000000
    6      -46.765530    -46.770294   1.000000   1.000000
    7      -16.020531    -16.020598   1.000000   1.000000
    8      -16.019503    -16.019454   1.000000   1.000000
    9      -16.006778    -16.006922   1.000000   1.000000
   10      -16.006035    -16.005888   1.000000   1.000000
   11      -15.968539    -15.968508   1.000000   1.000000
   12      -15.967922    -15.967950   1.000000   1.000000
   13      -15.956598    -15.956571   1.000000   1.000000
   14      -15.955589    -15.955620   1.000000   1.000000
   15      -15.945431    -15.945550   1.000000   1.000000
   16      -15.944821    -15.944683   1.000000   1.000000
   17      -11.626803    -11.625364   1.000000   1.000000
   18      -11.596462    -11.597477   1.000000   1.000000
   19      -10.702556    -10.701304   1.000000   1.000000
   20      -10.623194    -10.623937   1.000000   1.000000
   21      -10.525580    -10.525788   1.000000   1.000000
   22      -10.468177    -10.468200   1.000000   1.000000
   23       -3.565259     -3.563933   1.000000   1.000000
   24       -3.537369     -3.536146   1.000000   1.000000
   25       -2.899078     -2.895073   1.000000   1.000000
   26       -2.825610     -2.821616   1.000000   1.000000
   27       -2.730495     -2.725965   1.000000   1.000000
   28       -2.557532     -2.554172   1.000000   1.000000
   29       -2.352776     -2.349338   1.000000   1.000000
   30        1.110553      1.109790   1.000000   1.000000
   31        1.273746      1.274260   1.000000   1.000000
   32        1.785842      1.786005   1.000000   1.000000
   33        2.056688      2.056496   1.000000   1.000000
   34        2.355551      2.355177   1.000000   1.000000
   35        2.567008      2.566636   1.000000   1.000000
   36        2.883573      2.884527   1.000000   1.000000
   37        3.168448      3.167649   1.000000   1.000000
   38        3.706548      3.705722   1.000000   1.000000
   39        4.142439      4.142775   1.000000   1.000000
   40        4.383200      4.382983   1.000000   1.000000
   41        4.503058      4.501835   1.000000   1.000000
   42        4.678595      4.679014   1.000000   1.000000
   43        4.799344      4.798929   1.000000   1.000000
   44        4.979518      4.980704   1.000000   1.000000
   45        5.170889      5.171248   1.000000   1.000000
   46        5.516455      5.515947   1.000000   1.000000
   47        5.731139      5.731355   1.000000   1.000000
   48        8.980452      8.977390   0.000000   0.000000
   49        9.330492      9.326985   0.000000   0.000000
   50        9.488440      9.485206   0.000000   0.000000
   51        9.497710      9.493968   0.000000   0.000000
   52        9.601068      9.597366   0.000000   0.000000
   53        9.953457      9.953477   0.000000   0.000000
   54       10.209485     10.207779   0.000000   0.000000
   55       11.214093     11.214028   0.000000   0.000000
   56       11.321456     11.321253   0.000000   0.000000
 
  0.5000000E+00  0.2173913E-01  0.0000000E+00  0.8333333E-02
    1      -51.851537    -51.846512   1.000000   1.000000
    2      -51.801078    -51.796312   1.000000   1.000000
    3      -51.801046    -51.796291   1.000000   1.000000
    4      -46.803681    -46.808628   1.000000   1.000000
    5      -46.765541    -46.770318   1.000000   1.000000
    6      -46.765528    -46.770294   1.000000   1.000000
    7      -16.021475    -16.021242   1.000000   1.000000
    8      -16.019075    -16.019397   1.000000   1.000000
    9      -16.007321    -16.007057   1.000000   1.000000
   10      -16.005005    -16.005197   1.000000   1.000000
   11      -15.968606    -15.968503   1.000000   1.000000
   12      -15.967905    -15.968014   1.000000   1.000000
   13      -15.956573    -15.956601   1.000000   1.000000
   14      -15.955646    -15.955600   1.000000   1.000000
   15      -15.945764    -15.945855   1.000000   1.000000
   16      -15.944320    -15.944222   1.000000   1.000000
   17      -11.635181    -11.633293   1.000000   1.000000
   18      -11.586541    -11.588045   1.000000   1.000000
   19      -10.703030    -10.702309   1.000000   1.000000
   20      -10.624061    -10.623917   1.000000   1.000000
   21      -10.526598    -10.527687   1.000000   1.000000
   22      -10.467717    -10.467159   1.000000   1.000000
   23       -3.571038     -3.568706   1.000000   1.000000
   24       -3.531822     -3.531766   1.000000   1.000000
   25       -2.899711     -2.896084   1.000000   1.000000
   26       -2.825859     -2.821238   1.000000   1.000000
   27       -2.731034     -2.726823   1.000000   1.000000
   28       -2.556102     -2.552744   1.000000   1.000000
   29       -2.353260     -2.349734   1.000000   1.000000
   30        1.105836      1.107754   1.000000   1.000000
   31        1.280123      1.279855   1.000000   1.000000
   32        1.782186      1.787068   1.000000   1.000000
   33        2.060192      2.055875   1.000000   1.000000
   34        2.363987      2.354566   1.000000   1.000000
   35        2.566922      2.569003   1.000000   1.000000
   36        2.884515      2.884110   1.000000   1.000000
   37        3.168104      3.173708   1.000000   1.000000
   38        3.706761      3.703593   1.000000   1.000000
   39        4.138772      4.142317   1.000000   1.000000
   40        4.381029      4.376765   1.000000   1.000000
   41        4.502468      4.503559   1.000000   1.000000
   42        4.678645      4.679127   1.000000   1.000000
   43        4.798003      4.798112   1.000000   1.000000
   44        4.976069      4.978334   1.000000   1.000000
   45        5.169915      5.171521   1.000000   1.000000
   46        5.516991      5.516286   1.000000   1.000000
   47        5.732830      5.729966   1.000000   1.000000
   48        8.982954      8.978960   0.000000   0.000000
   49        9.330212      9.327335   0.000000   0.000000
   50        9.487555      9.482221   0.000000   0.000000
   51        9.497451      9.495399   0.000000   0.000000
   52        9.600098      9.598989   0.000000   0.000000
   53        9.953943      9.955048   0.000000   0.000000
   54       10.209987     10.207215   0.000000   0.000000
   55       11.201365     11.195057   0.000000   0.000000
   56       11.332370     11.336874   0.000000   0.000000
 
  0.5000000E+00  0.4347826E-01  0.0000000E+00  0.8333333E-02
    1      -51.851536    -51.846512   1.000000   1.000000
    2      -51.801076    -51.796309   1.000000   1.000000
    3      -51.801043    -51.796291   1.000000   1.000000
    4      -46.803680    -46.808628   1.000000   1.000000
    5      -46.765537    -46.770317   1.000000   1.000000
    6      -46.765527    -46.770290   1.000000   1.000000
    7      -16.023276    -16.022848   1.000000   1.000000
    8      -16.018721    -16.019376   1.000000   1.000000
    9      -16.007645    -16.007030   1.000000   1.000000
   10      -16.003343    -16.003750   1.000000   1.000000
   11      -15.968800    -15.968519   1.000000   1.000000
   12      -15.967865    -15.968177   1.000000   1.000000
   13      -15.956513    -15.956702   1.000000   1.000000
   14      -15.955815    -15.955548   1.000000   1.000000
   15      -15.946164    -15.946280   1.000000   1.000000
   16      -15.943438    -15.943348   1.000000   1.000000
   17      -11.649426    -11.646649   1.000000   1.000000
   18      -11.567706    -11.570217   1.000000   1.000000
   19      -10.704518    -10.705313   1.000000   1.000000
   20      -10.626600    -10.623930   1.000000   1.000000
   21      -10.529604    -10.533002   1.000000   1.000000
   22      -10.466435    -10.464408   1.000000   1.000000
   23       -3.582779     -3.578986   1.000000   1.000000
   24       -3.520793     -3.522671   1.000000   1.000000
   25       -2.901544     -2.898982   1.000000   1.000000
   26       -2.826629     -2.820223   1.000000   1.000000
   27       -2.732536     -2.729260   1.000000   1.000000
   28       -2.551993     -2.548634   1.000000   1.000000
   29       -2.354706     -2.350925   1.000000   1.000000
   30        1.093638      1.102465   1.000000   1.000000
   31        1.297280      1.295753   1.000000   1.000000
   32        1.772630      1.790248   1.000000   1.000000
   33        2.069730      2.054063   1.000000   1.000000
   34        2.388621      2.352968   1.000000   1.000000
   35        2.566670      2.575894   1.000000   1.000000
   36        2.887326      2.883131   1.000000   1.000000
   37        3.167162      3.191422   1.000000   1.000000
   38        3.707404      3.697422   1.000000   1.000000
   39        4.128277      4.140777   1.000000   1.000000
   40        4.373761      4.359620   1.000000   1.000000
   41        4.500947      4.507386   1.000000   1.000000
   42        4.678519      4.679411   1.000000   1.000000
   43        4.794194      4.795444   1.000000   1.000000
   44        4.966606      4.971829   1.000000   1.000000
   45        5.166718      5.171798   1.000000   1.000000
   46        5.518147      5.517306   1.000000   1.000000
   47        5.737909      5.725983   1.000000   1.000000
   48        8.990356      8.983540   0.000000   0.000000
   49        9.329424      9.328368   0.000000   0.000000
   50        9.484913      9.474480   0.000000   0.000000
   51        9.496348      9.498563   0.000000   0.000000
   52        9.597568      9.603664   0.000000   0.000000
   53        9.954848      9.959798   0.000000   0.000000
   54       10.211872     10.205327   0.000000   0.000000
   55       11.173244     11.155645   0.000000   0.000000
   56       11.355613     11.366518   0.000000   0.000000
 
  0.5000000E+00  0.6521739E-01  0.0000000E+00  0.8333333E-02
    1      -51.851537    -51.846512   1.000000   1.000000
    2      -51.801076    -51.796307   1.000000   1.000000
    3      -51.801041    -51.796290   1.000000   1.000000
    4      -46.803681    -46.808628   1.000000   1.000000
    5      -46.765536    -46.770317   1.000000   1.000000
    6      -46.765528    -46.770289   1.000000   1.000000
    7      -16.025540    -16.025063   1.000000   1.000000
    8      -16.018606    -16.019417   1.000000   1.000000
    9      -16.007565    -16.006743   1.000000   1.000000
   10      -16.001483    -16.001993   1.000000   1.000000
   11      -15.969104    -15.968705   1.000000   1.000000
   12      -15.967807    -15.968275   1.000000   1.000000
   13      -15.956430    -15.956871   1.000000   1.000000
   14      -15.956065    -15.955463   1.000000   1.000000
   15      -15.946477    -15.946635   1.000000   1.000000
   16      -15.942359    -15.942272   1.000000   1.000000
   17      -11.663467    -11.659745   1.000000   1.000000
   18      -11.546101    -11.549748   1.000000   1.000000
   19      -10.707132    -10.710196   1.000000   1.000000
   20      -10.630685    -10.624080   1.000000   1.000000
   21      -10.534399    -10.540929   1.000000   1.000000
   22      -10.464527    -10.460762   1.000000   1.000000
   23       -3.596452     -3.591448   1.000000   1.000000
   24       -3.508346     -3.512191   1.000000   1.000000
   25       -2.904408     -2.903391   1.000000   1.000000
   26       -2.827924     -2.818809   1.000000   1.000000
   27       -2.734694     -2.732912   1.000000   1.000000
   28       -2.545682     -2.542295   1.000000   1.000000
   29       -2.357095     -2.352926   1.000000   1.000000
   30        1.077602      1.095595   1.000000   1.000000
   31        1.321558      1.320102   1.000000   1.000000
   32        1.760417      1.795542   1.000000   1.000000
   33        2.083316      2.051234   1.000000   1.000000
   34        2.427520      2.350973   1.000000   1.000000
   35        2.566323      2.586781   1.000000   1.000000
   36        2.891978      2.882240   1.000000   1.000000
   37        3.165886      3.219567   1.000000   1.000000
   38        3.708500      3.687848   1.000000   1.000000
   39        4.112259      4.137696   1.000000   1.000000
   40        4.359739      4.334418   1.000000   1.000000
   41        4.498946      4.510959   1.000000   1.000000
   42        4.677364      4.679531   1.000000   1.000000
   43        4.788603      4.790466   1.000000   1.000000
   44        4.953296      4.962743   1.000000   1.000000
   45        5.160769      5.170712   1.000000   1.000000
   46        5.518818      5.519015   1.000000   1.000000
   47        5.746303      5.719945   1.000000   1.000000
   48        9.002343      8.990769   0.000000   0.000000
   49        9.328273      9.330051   0.000000   0.000000
   50        9.480421      9.462779   0.000000   0.000000
   51        9.493715      9.502850   0.000000   0.000000
   52        9.594597      9.610890   0.000000   0.000000
   53        9.954671      9.967802   0.000000   0.000000
   54       10.216163     10.201553   0.000000   0.000000
   55       11.140300     11.111665   0.000000   0.000000
   56       11.379439     11.394878   0.000000   0.000000
 
  0.5000000E+00  0.8695652E-01  0.0000000E+00  0.8333333E-02
    1      -51.851538    -51.846513   1.000000   1.000000
    2      -51.801077    -51.796307   1.000000   1.000000
    3      -51.801042    -51.796291   1.000000   1.000000
    4      -46.803681    -46.808629   1.000000   1.000000
    5      -46.765536    -46.770318   1.000000   1.000000
    6      -46.765528    -46.770289   1.000000   1.000000
    7      -16.028097    -16.027625   1.000000   1.000000
    8      -16.018630    -16.019481   1.000000   1.000000
    9      -16.007172    -16.006252   1.000000   1.000000
   10      -15.999574    -16.000137   1.000000   1.000000
   11      -15.969496    -15.969109   1.000000   1.000000
   12      -15.967727    -15.968227   1.000000   1.000000
   13      -15.956435    -15.957088   1.000000   1.000000
   14      -15.956256    -15.955347   1.000000   1.000000
   15      -15.946717    -15.946918   1.000000   1.000000
   16      -15.941116    -15.941034   1.000000   1.000000
   17      -11.676249    -11.671631   1.000000   1.000000
   18      -11.522833    -11.527645   1.000000   1.000000
   19      -10.710969    -10.716789   1.000000   1.000000
   20      -10.636018    -10.624516   1.000000   1.000000
   21      -10.540746    -10.550638   1.000000   1.000000
   22      -10.462210    -10.456855   1.000000   1.000000
   23       -3.611180     -3.605247   1.000000   1.000000
   24       -3.495405     -3.501167   1.000000   1.000000
   25       -2.908025     -2.908826   1.000000   1.000000
   26       -2.829736     -2.817292   1.000000   1.000000
   27       -2.737132     -2.737283   1.000000   1.000000
   28       -2.537807     -2.534339   1.000000   1.000000
   29       -2.360387     -2.355743   1.000000   1.000000
   30        1.060531      1.088548   1.000000   1.000000
   31        1.350100      1.351211   1.000000   1.000000
   32        1.748933      1.802936   1.000000   1.000000
   33        2.099301      2.047663   1.000000   1.000000
   34        2.477691      2.349293   1.000000   1.000000
   35        2.566158      2.601054   1.000000   1.000000
   36        2.898413      2.882159   1.000000   1.000000
   37        3.164649      3.256436   1.000000   1.000000
   38        3.710128      3.675894   1.000000   1.000000
   39        4.092355      4.132430   1.000000   1.000000
   40        4.337641      4.303533   1.000000   1.000000
   41        4.496523      4.512781   1.000000   1.000000
   42        4.673736      4.678480   1.000000   1.000000
   43        4.782408      4.783074   1.000000   1.000000
   44        4.938565      4.952942   1.000000   1.000000
   45        5.151814      5.166598   1.000000   1.000000
   46        5.517782      5.521342   1.000000   1.000000
   47        5.757620      5.712695   1.000000   1.000000
   48        9.018356      9.000045   0.000000   0.000000
   49        9.326861      9.332341   0.000000   0.000000
   50        9.473679      9.447446   0.000000   0.000000
   51        9.489215      9.508075   0.000000   0.000000
   52        9.592528      9.620123   0.000000   0.000000
   53        9.951429      9.979090   0.000000   0.000000
   54       10.224216     10.195126   0.000000   0.000000
   55       11.107680     11.069281   0.000000   0.000000
   56       11.400104     11.417295   0.000000   0.000000
 
  0.5000000E+00  0.1086957E+00  0.0000000E+00  0.8333333E-02
    1      -51.851538    -51.846513   1.000000   1.000000
    2      -51.801078    -51.796309   1.000000   1.000000
    3      -51.801043    -51.796291   1.000000   1.000000
    4      -46.803682    -46.808629   1.000000   1.000000
    5      -46.765539    -46.770318   1.000000   1.000000
    6      -46.765528    -46.770291   1.000000   1.000000
    7      -16.030835    -16.030385   1.000000   1.000000
    8      -16.018729    -16.019555   1.000000   1.000000
    9      -16.006553    -16.005604   1.000000   1.000000
   10      -15.997723    -15.998321   1.000000   1.000000
   11      -15.969952    -15.969616   1.000000   1.000000
   12      -15.967630    -15.968127   1.000000   1.000000
   13      -15.956744    -15.957336   1.000000   1.000000
   14      -15.956149    -15.955209   1.000000   1.000000
   15      -15.946901    -15.947140   1.000000   1.000000
   16      -15.939730    -15.939655   1.000000   1.000000
   17      -11.687484    -11.682056   1.000000   1.000000
   18      -11.498284    -11.504242   1.000000   1.000000
   19      -10.716240    -10.724928   1.000000   1.000000
   20      -10.642326    -10.625421   1.000000   1.000000
   21      -10.548371    -10.561572   1.000000   1.000000
   22      -10.459692    -10.453109   1.000000   1.000000
   23       -3.626759     -3.620171   1.000000   1.000000
   24       -3.482226     -3.489803   1.000000   1.000000
   25       -2.912065     -2.914788   1.000000   1.000000
   26       -2.831997     -2.815933   1.000000   1.000000
   27       -2.739529     -2.741859   1.000000   1.000000
   28       -2.529077     -2.525430   1.000000   1.000000
   29       -2.364509     -2.359375   1.000000   1.000000
   30        1.044104      1.082101   1.000000   1.000000
   31        1.381122      1.387939   1.000000   1.000000
   32        1.740854      1.812370   1.000000   1.000000
   33        2.116715      2.043722   1.000000   1.000000
   34        2.534000      2.348540   1.000000   1.000000
   35        2.568268      2.618186   1.000000   1.000000
   36        2.906545      2.883469   1.000000   1.000000
   37        3.163853      3.299965   1.000000   1.000000
   38        3.712470      3.662985   1.000000   1.000000
   39        4.070149      4.124250   1.000000   1.000000
   40        4.307272      4.268649   1.000000   1.000000
   41        4.493106      4.512272   1.000000   1.000000
   42        4.665927      4.674244   1.000000   1.000000
   43        4.776996      4.774343   1.000000   1.000000
   44        4.924272      4.943928   1.000000   1.000000
   45        5.140151      5.157982   1.000000   1.000000
   46        5.514199      5.524041   1.000000   1.000000
   47        5.771017      5.705285   1.000000   1.000000
   48        9.037542      9.010548   0.000000   0.000000
   49        9.325120      9.335157   0.000000   0.000000
   50        9.464379      9.428951   0.000000   0.000000
   51        9.483183      9.513915   0.000000   0.000000
   52        9.592295      9.630821   0.000000   0.000000
   53        9.943382      9.993428   0.000000   0.000000
   54       10.237096     10.185378   0.000000   0.000000
   55       11.077512     11.031877   0.000000   0.000000
   56       11.415616     11.431609   0.000000   0.000000
 
  0.5000000E+00  0.1304348E+00  0.0000000E+00  0.8333333E-02
    1      -51.851538    -51.846513   1.000000   1.000000
    2      -51.801078    -51.796308   1.000000   1.000000
    3      -51.801040    -51.796290   1.000000   1.000000
    4      -46.803682    -46.808629   1.000000   1.000000
    5      -46.765536    -46.770319   1.000000   1.000000
    6      -46.765528    -46.770287   1.000000   1.000000
    7      -16.033661    -16.033237   1.000000   1.000000
    8      -16.018851    -16.019618   1.000000   1.000000
    9      -16.005775    -16.004833   1.000000   1.000000
   10      -15.995996    -15.996618   1.000000   1.000000
   11      -15.970442    -15.970167   1.000000   1.000000
   12      -15.967517    -15.968000   1.000000   1.000000
   13      -15.957084    -15.957595   1.000000   1.000000
   14      -15.956001    -15.955061   1.000000   1.000000
   15      -15.947031    -15.947300   1.000000   1.000000
   16      -15.938219    -15.938151   1.000000   1.000000
   17      -11.697043    -11.690928   1.000000   1.000000
   18      -11.472711    -11.479765   1.000000   1.000000
   19      -10.723139    -10.734413   1.000000   1.000000
   20      -10.649249    -10.627056   1.000000   1.000000
   21      -10.556930    -10.573171   1.000000   1.000000
   22      -10.457185    -10.449738   1.000000   1.000000
   23       -3.643131     -3.636151   1.000000   1.000000
   24       -3.468920     -3.478135   1.000000   1.000000
   25       -2.916162     -2.920808   1.000000   1.000000
   26       -2.834584     -2.814930   1.000000   1.000000
   27       -2.741669     -2.746173   1.000000   1.000000
   28       -2.520195     -2.516211   1.000000   1.000000
   29       -2.369339     -2.363795   1.000000   1.000000
   30        1.029284      1.076527   1.000000   1.000000
   31        1.413513      1.429587   1.000000   1.000000
   32        1.738052      1.823721   1.000000   1.000000
   33        2.134948      2.039856   1.000000   1.000000
   34        2.560456      2.349120   1.000000   1.000000
   35        2.605739      2.637826   1.000000   1.000000
   36        2.916254      2.886536   1.000000   1.000000
   37        3.163822      3.347511   1.000000   1.000000
   38        3.715868      3.651154   1.000000   1.000000
   39        4.046974      4.112365   1.000000   1.000000
   40        4.269530      4.231169   1.000000   1.000000
   41        4.487817      4.509125   1.000000   1.000000
   42        4.652834      4.664243   1.000000   1.000000
   43        4.773119      4.766696   1.000000   1.000000
   44        4.911396      4.936441   1.000000   1.000000
   45        5.126600      5.143886   1.000000   1.000000
   46        5.507793      5.526612   1.000000   1.000000
   47        5.785286      5.698859   1.000000   1.000000
   48        9.058558      9.021201   0.000000   0.000000
   49        9.322690      9.338305   0.000000   0.000000
   50        9.453288      9.408046   0.000000   0.000000
   51        9.476218      9.519991   0.000000   0.000000
   52        9.594146      9.642482   0.000000   0.000000
   53        9.929718     10.009823   0.000000   0.000000
   54       10.254997     10.172446   0.000000   0.000000
   55       11.051026     11.001751   0.000000   0.000000
   56       11.424843     11.437556   0.000000   0.000000
 
  0.5000000E+00  0.1521739E+00  0.0000000E+00  0.8333333E-02
    1      -51.851538    -51.846513   1.000000   1.000000
    2      -51.801078    -51.796307   1.000000   1.000000
    3      -51.801039    -51.796290   1.000000   1.000000
    4      -46.803681    -46.808629   1.000000   1.000000
    5      -46.765535    -46.770319   1.000000   1.000000
    6      -46.765528    -46.770286   1.000000   1.000000
    7      -16.036524    -16.036127   1.000000   1.000000
    8      -16.018973    -16.019668   1.000000   1.000000
    9      -16.004879    -16.003964   1.000000   1.000000
   10      -15.994446    -15.995085   1.000000   1.000000
   11      -15.970942    -15.970730   1.000000   1.000000
   12      -15.967390    -15.967852   1.000000   1.000000
   13      -15.957422    -15.957857   1.000000   1.000000
   14      -15.955854    -15.954927   1.000000   1.000000
   15      -15.947111    -15.947398   1.000000   1.000000
   16      -15.936623    -15.936562   1.000000   1.000000
   17      -11.704926    -11.698259   1.000000   1.000000
   18      -11.446304    -11.454372   1.000000   1.000000
   19      -10.731875    -10.745138   1.000000   1.000000
   20      -10.656578    -10.629796   1.000000   1.000000
   21      -10.566139    -10.584888   1.000000   1.000000
   22      -10.454831    -10.446892   1.000000   1.000000
   23       -3.660263     -3.653134   1.000000   1.000000
   24       -3.455591     -3.466201   1.000000   1.000000
   25       -2.919964     -2.926486   1.000000   1.000000
   26       -2.837335     -2.814404   1.000000   1.000000
   27       -2.743446     -2.749852   1.000000   1.000000
   28       -2.511857     -2.507305   1.000000   1.000000
   29       -2.374688     -2.368923   1.000000   1.000000
   30        1.016590      1.071769   1.000000   1.000000
   31        1.446547      1.475734   1.000000   1.000000
   32        1.741722      1.836759   1.000000   1.000000
   33        2.153410      2.036582   1.000000   1.000000
   34        2.562670      2.351216   1.000000   1.000000
   35        2.670392      2.659796   1.000000   1.000000
   36        2.927370      2.891536   1.000000   1.000000
   37        3.164658      3.395169   1.000000   1.000000
   38        3.720858      3.643627   1.000000   1.000000
   39        4.023819      4.095793   1.000000   1.000000
   40        4.226027      4.192639   1.000000   1.000000
   41        4.479860      4.502672   1.000000   1.000000
   42        4.634708      4.647392   1.000000   1.000000
   43        4.770111      4.762218   1.000000   1.000000
   44        4.900192      4.930477   1.000000   1.000000
   45        5.112330      5.123988   1.000000   1.000000
   46        5.498747      5.528305   1.000000   1.000000
   47        5.799113      5.694477   1.000000   1.000000
   48        9.079302      9.030614   0.000000   0.000000
   49        9.319062      9.341031   0.000000   0.000000
   50        9.442677      9.386334   0.000000   0.000000
   51        9.468557      9.525880   0.000000   0.000000
   52        9.597812      9.654634   0.000000   0.000000
   53        9.910751     10.025301   0.000000   0.000000
   54       10.277089     10.158761   0.000000   0.000000
   55       11.028692     10.979970   0.000000   0.000000
   56       11.428876     11.436045   0.000000   0.000000
 
  0.5000000E+00  0.1739130E+00  0.0000000E+00  0.8333333E-02
    1      -51.851539    -51.846514   1.000000   1.000000
    2      -51.801077    -51.796306   1.000000   1.000000
    3      -51.801039    -51.796290   1.000000   1.000000
    4      -46.803683    -46.808630   1.000000   1.000000
    5      -46.765535    -46.770318   1.000000   1.000000
    6      -46.765527    -46.770287   1.000000   1.000000
    7      -16.039379    -16.039008   1.000000   1.000000
    8      -16.019080    -16.019698   1.000000   1.000000
    9      -16.003899    -16.003016   1.000000   1.000000
   10      -15.993107    -15.993757   1.000000   1.000000
   11      -15.971428    -15.971277   1.000000   1.000000
   12      -15.967253    -15.967689   1.000000   1.000000
   13      -15.957750    -15.958119   1.000000   1.000000
   14      -15.955731    -15.954833   1.000000   1.000000
   15      -15.947142    -15.947434   1.000000   1.000000
   16      -15.934965    -15.934910   1.000000   1.000000
   17      -11.711162    -11.704088   1.000000   1.000000
   18      -11.419278    -11.428265   1.000000   1.000000
   19      -10.742537    -10.756958   1.000000   1.000000
   20      -10.664177    -10.634286   1.000000   1.000000
   21      -10.575619    -10.595863   1.000000   1.000000
   22      -10.452741    -10.444640   1.000000   1.000000
   23       -3.678089     -3.671029   1.000000   1.000000
   24       -3.442370     -3.454057   1.000000   1.000000
   25       -2.923110     -2.931445   1.000000   1.000000
   26       -2.840062     -2.814391   1.000000   1.000000
   27       -2.744839     -2.752646   1.000000   1.000000
   28       -2.504766     -2.499341   1.000000   1.000000
   29       -2.380260     -2.374585   1.000000   1.000000
   30        1.006291      1.067609   1.000000   1.000000
   31        1.479804      1.526098   1.000000   1.000000
   32        1.752478      1.851108   1.000000   1.000000
   33        2.171382      2.034507   1.000000   1.000000
   34        2.564997      2.354825   1.000000   1.000000
   35        2.735762      2.684056   1.000000   1.000000
   36        2.939682      2.898487   1.000000   1.000000
   37        3.166148      3.436668   1.000000   1.000000
   38        3.728111      3.645808   1.000000   1.000000
   39        4.001258      4.073084   1.000000   1.000000
   40        4.178851      4.155176   1.000000   1.000000
   41        4.468708      4.491463   1.000000   1.000000
   42        4.612922      4.625998   1.000000   1.000000
   43        4.766076      4.760802   1.000000   1.000000
   44        4.890677      4.925617   1.000000   1.000000
   45        5.098616      5.098701   1.000000   1.000000
   46        5.487514      5.528285   1.000000   1.000000
   47        5.811324      5.692909   1.000000   1.000000
   48        9.096415      9.037017   0.000000   0.000000
   49        9.314466      9.339686   0.000000   0.000000
   50        9.435463      9.368779   0.000000   0.000000
   51        9.460284      9.531216   0.000000   0.000000
   52        9.602937      9.666899   0.000000   0.000000
   53        9.887632     10.032538   0.000000   0.000000
   54       10.301888     10.151656   0.000000   0.000000
   55       11.010438     10.966156   0.000000   0.000000
   56       11.426837     11.427349   0.000000   0.000000
 