   10   10    1    2
  0.1285506E+02  0.5705956E-09  0.5705956E-09  0.5705956E-09  0.5000000E-15
  1.000000000000000E-004
  CAR 
 unknown system                          
     94    120     56
 
  0.5000000E+00  0.0000000E+00  0.0000000E+00  0.8333333E-02
    1      -50.871310    -50.866387   1.000000   1.000000
    2      -50.809699    -50.805072   1.000000   1.000000
    3      -50.809667    -50.805047   1.000000   1.000000
    4      -46.087325    -46.092171   1.000000   1.000000
    5      -46.042048    -46.046686   1.000000   1.000000
    6      -46.042029    -46.046661   1.000000   1.000000
    7      -16.134064    -16.134150   1.000000   1.000000
    8      -16.133217    -16.133172   1.000000   1.000000
    9      -16.120566    -16.120662   1.000000   1.000000
   10      -16.119362    -16.119253   1.000000   1.000000
   11      -16.077615    -16.077596   1.000000   1.000000
   12      -16.076678    -16.076699   1.000000   1.000000
   13      -16.065918    -16.065902   1.000000   1.000000
   14      -16.064696    -16.064725   1.000000   1.000000
   15      -16.054410    -16.054587   1.000000   1.000000
   16      -16.053321    -16.053100   1.000000   1.000000
   17      -11.743113    -11.741903   1.000000   1.000000
   18      -11.699800    -11.700679   1.000000   1.000000
   19      -10.770747    -10.768997   1.000000   1.000000
   20      -10.681396    -10.682463   1.000000   1.000000
   21      -10.633152    -10.632757   1.000000   1.000000
   22      -10.583389    -10.584446   1.000000   1.000000
   23       -3.445422     -3.445369   1.000000   1.000000
   24       -3.431076     -3.430893   1.000000   1.000000
   25       -0.516779     -0.513382   1.000000   1.000000
   26       -0.499092     -0.495573   1.000000   1.000000
   27       -0.300702     -0.296917   1.000000   1.000000
   28       -0.260323     -0.256399   1.000000   1.000000
   29        0.037522      0.041627   1.000000   1.000000
   30        1.112458      1.112213   1.000000   1.000000
   31        1.328060      1.328241   1.000000   1.000000
   32        1.740948      1.741003   1.000000   1.000000
   33        2.072982      2.073000   1.000000   1.000000
   34        2.419356      2.419288   1.000000   1.000000
   35        2.623187      2.623078   1.000000   1.000000
   36        2.849966      2.850483   1.000000   1.000000
   37        3.033078      3.032617   1.000000   1.000000
   38        3.734267      3.733650   1.000000   1.000000
   39        4.104161      4.104787   1.000000   1.000000
   40        4.253555      4.253214   1.000000   1.000000
   41        4.356540      4.355514   1.000000   1.000000
   42        4.571455      4.571562   1.000000   1.000000
   43        4.667439      4.667143   1.000000   1.000000
   44        5.137859      5.138633   1.000000   1.000000
   45        5.213578      5.213978   1.000000   1.000000
   46        5.515484      5.515609   1.000000   1.000000
   47        5.754483      5.754813   1.000000   1.000000
   48        8.204213      8.200655   0.000000   0.000000
   49        8.332403      8.328692   0.000000   0.000000
   50        8.484738      8.481100   0.000000   0.000000
   51        8.989206      8.985972   0.000000   0.000000
   52        9.067213      9.063996   0.000000   0.000000
   53        9.851205      9.852059   0.000000   0.000000
   54        9.999701      9.998426   0.000000   0.000000
   55       11.137076     11.137731   0.000000   0.000000
   56       11.205938     11.206211   0.000000   0.000000
 
  0.5000000E+00  0.2173913E-01  0.0000000E+00  0.8333333E-02
    1      -50.871310    -50.866387   1.000000   1.000000
    2      -50.809698    -50.805069   1.000000   1.000000
    3      -50.809664    -50.805045   1.000000   1.000000
    4      -46.087326    -46.092172   1.000000   1.000000
    5      -46.042044    -46.046684   1.000000   1.000000
    6      -46.042027    -46.046657   1.000000   1.000000
    7      -16.135183    -16.134812   1.000000   1.000000
    8      -16.132645    -16.133212   1.000000   1.000000
    9      -16.121170    -16.120577   1.000000   1.000000
   10      -16.118222    -16.118648   1.000000   1.000000
   11      -16.077688    -16.077582   1.000000   1.000000
   12      -16.076666    -16.076787   1.000000   1.000000
   13      -16.065894    -16.065924   1.000000   1.000000
   14      -16.064740    -16.064689   1.000000   1.000000
   15      -16.054534    -16.054712   1.000000   1.000000
   16      -16.053035    -16.052831   1.000000   1.000000
   17      -11.749192    -11.747898   1.000000   1.000000
   18      -11.692081    -11.693067   1.000000   1.000000
   19      -10.771659    -10.770329   1.000000   1.000000
   20      -10.683822    -10.682345   1.000000   1.000000
   21      -10.632724    -10.636011   1.000000   1.000000
   22      -10.582421    -10.581891   1.000000   1.000000
   23       -3.455117     -3.454800   1.000000   1.000000
   24       -3.421732     -3.421834   1.000000   1.000000
   25       -0.526663     -0.521869   1.000000   1.000000
   26       -0.490260     -0.488249   1.000000   1.000000
   27       -0.302197     -0.301465   1.000000   1.000000
   28       -0.257220     -0.251206   1.000000   1.000000
   29        0.037179      0.041348   1.000000   1.000000
   30        1.108115      1.111505   1.000000   1.000000
   31        1.332826      1.333127   1.000000   1.000000
   32        1.735476      1.742006   1.000000   1.000000
   33        2.081599      2.073830   1.000000   1.000000
   34        2.424864      2.419175   1.000000   1.000000
   35        2.623022      2.620386   1.000000   1.000000
   36        2.850708      2.849432   1.000000   1.000000
   37        3.033906      3.041497   1.000000   1.000000
   38        3.732810      3.730152   1.000000   1.000000
   39        4.099502      4.105304   1.000000   1.000000
   40        4.253708      4.247576   1.000000   1.000000
   41        4.355643      4.357122   1.000000   1.000000
   42        4.571126      4.572649   1.000000   1.000000
   43        4.666809      4.667009   1.000000   1.000000
   44        5.133514      5.129283   1.000000   1.000000
   45        5.214362      5.222723   1.000000   1.000000
   46        5.515445      5.514060   1.000000   1.000000
   47        5.755521      5.752805   1.000000   1.000000
   48        8.205904      8.201533   0.000000   0.000000
   49        8.332858      8.328992   0.000000   0.000000
   50        8.484320      8.481085   0.000000   0.000000
   51        8.988657      8.982160   0.000000   0.000000
   52        9.066169      9.068090   0.000000   0.000000
   53        9.851227      9.853643   0.000000   0.000000
   54       10.001083      9.997976   0.000000   0.000000
   55       11.116720     11.112406   0.000000   0.000000
   56       11.224243     11.227681   0.000000   0.000000
 
  0.5000000E+00  0.4347826E-01  0.0000000E+00  0.8333333E-02
    1      -50.871310    -50.866387   1.000000   1.000000
    2      -50.809696    -50.805066   1.000000   1.000000
    3      -50.809661    -50.805044   1.000000   1.000000
    4      -46.087325    -46.092171   1.000000   1.000000
    5      -46.042040    -46.046682   1.000000   1.000000
    6      -46.042025    -46.046654   1.000000   1.000000
    7      -16.137147    -16.136583   1.000000   1.000000
    8      -16.132241    -16.133298   1.000000   1.000000
    9      -16.121597    -16.120316   1.000000   1.000000
   10      -16.116298    -16.117119   1.000000   1.000000
   11      -16.077910    -16.077552   1.000000   1.000000
   12      -16.076640    -16.077055   1.000000   1.000000
   13      -16.065841    -16.065997   1.000000   1.000000
   14      -16.064874    -16.064606   1.000000   1.000000
   15      -16.054745    -16.054954   1.000000   1.000000
   16      -16.052372    -16.052183   1.000000   1.000000
   17      -11.761236    -11.759682   1.000000   1.000000
   18      -11.675267    -11.676576   1.000000   1.000000
   19      -10.774477    -10.774259   1.000000   1.000000
   20      -10.690390    -10.682208   1.000000   1.000000
   21      -10.632133    -10.644257   1.000000   1.000000
   22      -10.579573    -10.575715   1.000000   1.000000
   23       -3.470093     -3.469518   1.000000   1.000000
   24       -3.407825     -3.408242   1.000000   1.000000
   25       -0.542781     -0.536553   1.000000   1.000000
   26       -0.477332     -0.477040   1.000000   1.000000
   27       -0.305525     -0.311317   1.000000   1.000000
   28       -0.249098     -0.239387   1.000000   1.000000
   29        0.036145      0.040479   1.000000   1.000000
   30        1.096326      1.109599   1.000000   1.000000
   31        1.345798      1.347442   1.000000   1.000000
   32        1.721871      1.744968   1.000000   1.000000
   33        2.104165      2.076377   1.000000   1.000000
   34        2.441727      2.418471   1.000000   1.000000
   35        2.622554      2.613450   1.000000   1.000000
   36        2.852968      2.847233   1.000000   1.000000
   37        3.036411      3.066337   1.000000   1.000000
   38        3.728598      3.720085   1.000000   1.000000
   39        4.086442      4.106379   1.000000   1.000000
   40        4.252448      4.231946   1.000000   1.000000
   41        4.353569      4.361097   1.000000   1.000000
   42        4.570234      4.575570   1.000000   1.000000
   43        4.665271      4.666594   1.000000   1.000000
   44        5.120815      5.108891   1.000000   1.000000
   45        5.216408      5.241096   1.000000   1.000000
   46        5.515052      5.509612   1.000000   1.000000
   47        5.758614      5.746913   1.000000   1.000000
   48        8.210897      8.204113   0.000000   0.000000
   49        8.334212      8.329887   0.000000   0.000000
   50        8.483071      8.480995   0.000000   0.000000
   51        8.986283      8.972257   0.000000   0.000000
   52        9.063885      9.078765   0.000000   0.000000
   53        9.850508      9.858301   0.000000   0.000000
   54       10.005722      9.996473   0.000000   0.000000
   55       11.079547     11.069276   0.000000   0.000000
   56       11.255291     11.262822   0.000000   0.000000
 
  0.5000000E+00  0.6521739E-01  0.0000000E+00  0.8333333E-02
    1      -50.871311    -50.866388   1.000000   1.000000
    2      -50.809696    -50.805065   1.000000   1.000000
    3      -50.809660    -50.805044   1.000000   1.000000
    4      -46.087326    -46.092172   1.000000   1.000000
    5      -46.042039    -46.046683   1.000000   1.000000
    6      -46.042026    -46.046652   1.000000   1.000000
    7      -16.139564    -16.139025   1.000000   1.000000
    8      -16.132159    -16.133414   1.000000   1.000000
    9      -16.121540    -16.119885   1.000000   1.000000
   10      -16.114148    -16.115125   1.000000   1.000000
   11      -16.078270    -16.077560   1.000000   1.000000
   12      -16.076598    -16.077425   1.000000   1.000000
   13      -16.065770    -16.066107   1.000000   1.000000
   14      -16.065075    -16.064497   1.000000   1.000000
   15      -16.054926    -16.055183   1.000000   1.000000
   16      -16.051477    -16.051303   1.000000   1.000000
   17      -11.773895    -11.771995   1.000000   1.000000
   18      -11.654756    -11.656516   1.000000   1.000000
   19      -10.779251    -10.780602   1.000000   1.000000
   20      -10.699749    -10.682578   1.000000   1.000000
   21      -10.632468    -10.654956   1.000000   1.000000
   22      -10.575042    -10.568104   1.000000   1.000000
   23       -3.486219     -3.485426   1.000000   1.000000
   24       -3.393470     -3.394201   1.000000   1.000000
   25       -0.560112     -0.552888   1.000000   1.000000
   26       -0.465407     -0.466439   1.000000   1.000000
   27       -0.308947     -0.322481   1.000000   1.000000
   28       -0.237795     -0.224812   1.000000   1.000000
   29        0.034439      0.038971   1.000000   1.000000
   30        1.079753      1.106975   1.000000   1.000000
   31        1.364056      1.370331   1.000000   1.000000
   32        1.706050      1.749752   1.000000   1.000000
   33        2.133651      2.080798   1.000000   1.000000
   34        2.470625      2.416152   1.000000   1.000000
   35        2.621909      2.605209   1.000000   1.000000
   36        2.856841      2.845531   1.000000   1.000000
   37        3.040653      3.103354   1.000000   1.000000
   38        3.722101      3.704590   1.000000   1.000000
   39        4.066983      4.106787   1.000000   1.000000
   40        4.245769      4.208847   1.000000   1.000000
   41        4.351953      4.366084   1.000000   1.000000
   42        4.569115      4.579378   1.000000   1.000000
   43        4.663586      4.665886   1.000000   1.000000
   44        5.100628      5.085466   1.000000   1.000000
   45        5.218982      5.260407   1.000000   1.000000
   46        5.513612      5.502989   1.000000   1.000000
   47        5.763650      5.737512   1.000000   1.000000
   48        8.218964      8.208265   0.000000   0.000000
   49        8.336449      8.331399   0.000000   0.000000
   50        8.481054      8.480734   0.000000   0.000000
   51        8.980092      8.958609   0.000000   0.000000
   52        9.062733      9.093416   0.000000   0.000000
   53        9.847104      9.865701   0.000000   0.000000
   54       10.014845      9.993617   0.000000   0.000000
   55       11.040193     11.024581   0.000000   0.000000
   56       11.284433     11.294526   0.000000   0.000000
 
  0.5000000E+00  0.8695652E-01  0.0000000E+00  0.8333333E-02
    1      -50.871312    -50.866389   1.000000   1.000000
    2      -50.809698    -50.805065   1.000000   1.000000
    3      -50.809659    -50.805045   1.000000   1.000000
    4      -46.087327    -46.092173   1.000000   1.000000
    5      -46.042039    -46.046684   1.000000   1.000000
    6      -46.042027    -46.046652   1.000000   1.000000
    7      -16.142270    -16.141811   1.000000   1.000000
    8      -16.132274    -16.133547   1.000000   1.000000
    9      -16.121103    -16.119302   1.000000   1.000000
   10      -16.111936    -16.112968   1.000000   1.000000
   11      -16.078740    -16.078060   1.000000   1.000000
   12      -16.076537    -16.077402   1.000000   1.000000
   13      -16.065689    -16.066244   1.000000   1.000000
   14      -16.065311    -16.064373   1.000000   1.000000
   15      -16.055058    -16.055363   1.000000   1.000000
   16      -16.050397    -16.050244   1.000000   1.000000
   17      -11.785624    -11.783366   1.000000   1.000000
   18      -11.632134    -11.634400   1.000000   1.000000
   19      -10.786061    -10.789023   1.000000   1.000000
   20      -10.710707    -10.684985   1.000000   1.000000
   21      -10.634213    -10.665525   1.000000   1.000000
   22      -10.569219    -10.560208   1.000000   1.000000
   23       -3.503211     -3.502231   1.000000   1.000000
   24       -3.378907     -3.379954   1.000000   1.000000
   25       -0.577967     -0.570196   1.000000   1.000000
   26       -0.455217     -0.457073   1.000000   1.000000
   27       -0.311487     -0.333274   1.000000   1.000000
   28       -0.224480     -0.208942   1.000000   1.000000
   29        0.032095      0.036773   1.000000   1.000000
   30        1.060969      1.104079   1.000000   1.000000
   31        1.384633      1.400795   1.000000   1.000000
   32        1.693539      1.756146   1.000000   1.000000
   33        2.163596      2.087290   1.000000   1.000000
   34        2.511628      2.410896   1.000000   1.000000
   35        2.621448      2.599256   1.000000   1.000000
   36        2.862456      2.845303   1.000000   1.000000
   37        3.046712      3.148961   1.000000   1.000000
   38        3.714053      3.685209   1.000000   1.000000
   39        4.043071      4.104955   1.000000   1.000000
   40        4.230107      4.180534   1.000000   1.000000
   41        4.352251      4.371393   1.000000   1.000000
   42        4.568350      4.582711   1.000000   1.000000
   43        4.662306      4.664962   1.000000   1.000000
   44        5.074091      5.062231   1.000000   1.000000
   45        5.221256      5.276050   1.000000   1.000000
   46        5.510349      5.495677   1.000000   1.000000
   47        5.770321      5.725160   1.000000   1.000000
   48        8.229768      8.213784   0.000000   0.000000
   49        8.339538      8.333570   0.000000   0.000000
   50        8.478380      8.480164   0.000000   0.000000
   51        8.967952      8.942510   0.000000   0.000000
   52        9.065367      9.110430   0.000000   0.000000
   53        9.838908      9.874936   0.000000   0.000000
   54       10.029511      9.989343   0.000000   0.000000
   55       11.002788     10.982909   0.000000   0.000000
   56       11.308394     11.319720   0.000000   0.000000
 
  0.5000000E+00  0.1086957E+00  0.0000000E+00  0.8333333E-02
    1      -50.871312    -50.866389   1.000000   1.000000
    2      -50.809699    -50.805067   1.000000   1.000000
    3      -50.809661    -50.805045   1.000000   1.000000
    4      -46.087327    -46.092173   1.000000   1.000000
    5      -46.042041    -46.046685   1.000000   1.000000
    6      -46.042027    -46.046654   1.000000   1.000000
    7      -16.145155    -16.144774   1.000000   1.000000
    8      -16.132489    -16.133688   1.000000   1.000000
    9      -16.120404    -16.118589   1.000000   1.000000
   10      -16.109772    -16.110819   1.000000   1.000000
   11      -16.079295    -16.078704   1.000000   1.000000
   12      -16.076458    -16.077305   1.000000   1.000000
   13      -16.065701    -16.066396   1.000000   1.000000
   14      -16.065465    -16.064253   1.000000   1.000000
   15      -16.055157    -16.055497   1.000000   1.000000
   16      -16.049161    -16.049031   1.000000   1.000000
   17      -11.795948    -11.793351   1.000000   1.000000
   18      -11.607986    -11.610781   1.000000   1.000000
   19      -10.795001    -10.799292   1.000000   1.000000
   20      -10.722547    -10.692770   1.000000   1.000000
   21      -10.637349    -10.672241   1.000000   1.000000
   22      -10.562657    -10.552557   1.000000   1.000000
   23       -3.521053     -3.519916   1.000000   1.000000
   24       -3.364119     -3.365474   1.000000   1.000000
   25       -0.596089     -0.588222   1.000000   1.000000
   26       -0.446970     -0.449190   1.000000   1.000000
   27       -0.312766     -0.342708   1.000000   1.000000
   28       -0.209924     -0.192504   1.000000   1.000000
   29        0.029178      0.033868   1.000000   1.000000
   30        1.041902      1.101130   1.000000   1.000000
   31        1.405199      1.437904   1.000000   1.000000
   32        1.688283      1.763867   1.000000   1.000000
   33        2.190041      2.095979   1.000000   1.000000
   34        2.562552      2.401859   1.000000   1.000000
   35        2.622461      2.598479   1.000000   1.000000
   36        2.869969      2.846838   1.000000   1.000000
   37        3.054670      3.200335   1.000000   1.000000
   38        3.705391      3.663634   1.000000   1.000000
   39        4.016188      4.099118   1.000000   1.000000
   40        4.204595      4.149098   1.000000   1.000000
   41        4.354311      4.376746   1.000000   1.000000
   42        4.568530      4.584063   1.000000   1.000000
   43        4.661396      4.664055   1.000000   1.000000
   44        5.042462      5.040745   1.000000   1.000000
   45        5.222541      5.284242   1.000000   1.000000
   46        5.504689      5.490114   1.000000   1.000000
   47        5.778033      5.710513   1.000000   1.000000
   48        8.242858      8.220395   0.000000   0.000000
   49        8.343409      8.336461   0.000000   0.000000
   50        8.475201      8.479104   0.000000   0.000000
   51        8.949243      8.924413   0.000000   0.000000
   52        9.072941      9.128938   0.000000   0.000000
   53        9.824679      9.883638   0.000000   0.000000
   54       10.049755      9.984853   0.000000   0.000000
   55       10.969256     10.946851   0.000000   0.000000
   56       11.325726     11.336745   0.000000   0.000000
 
  0.5000000E+00  0.1304348E+00  0.0000000E+00  0.8333333E-02
    1      -50.871312    -50.866389   1.000000   1.000000
    2      -50.809699    -50.805066   1.000000   1.000000
    3      -50.809659    -50.805045   1.000000   1.000000
    4      -46.087327    -46.092173   1.000000   1.000000
    5      -46.042040    -46.046685   1.000000   1.000000
    6      -46.042028    -46.046652   1.000000   1.000000
    7      -16.148121    -16.147804   1.000000   1.000000
    8      -16.132735    -16.133821   1.000000   1.000000
    9      -16.119526    -16.117766   1.000000   1.000000
   10      -16.107720    -16.108768   1.000000   1.000000
   11      -16.079903    -16.079401   1.000000   1.000000
   12      -16.076361    -16.077182   1.000000   1.000000
   13      -16.065928    -16.066553   1.000000   1.000000
   14      -16.065403    -16.064148   1.000000   1.000000
   15      -16.055211    -16.055573   1.000000   1.000000
   16      -16.047793    -16.047685   1.000000   1.000000
   17      -11.804638    -11.801758   1.000000   1.000000
   18      -11.582633    -11.585948   1.000000   1.000000
   19      -10.806109    -10.811133   1.000000   1.000000
   20      -10.734757    -10.705796   1.000000   1.000000
   21      -10.641554    -10.674958   1.000000   1.000000
   22      -10.555785    -10.545340   1.000000   1.000000
   23       -3.539727     -3.538469   1.000000   1.000000
   24       -3.349039     -3.350685   1.000000   1.000000
   25       -0.614328     -0.606794   1.000000   1.000000
   26       -0.440624     -0.443001   1.000000   1.000000
   27       -0.312730     -0.349931   1.000000   1.000000
   28       -0.194786     -0.176078   1.000000   1.000000
   29        0.025816      0.030324   1.000000   1.000000
   30        1.023911      1.098129   1.000000   1.000000
   31        1.424368      1.480889   1.000000   1.000000
   32        1.692565      1.772617   1.000000   1.000000
   33        2.211419      2.106794   1.000000   1.000000
   34        2.607541      2.389467   1.000000   1.000000
   35        2.638359      2.604149   1.000000   1.000000
   36        2.879574      2.850130   1.000000   1.000000
   37        3.064587      3.255084   1.000000   1.000000
   38        3.697212      3.641642   1.000000   1.000000
   39        3.987427      4.085971   1.000000   1.000000
   40        4.170732      4.118340   1.000000   1.000000
   41        4.356822      4.381695   1.000000   1.000000
   42        4.569896      4.582188   1.000000   1.000000
   43        4.660285      4.663472   1.000000   1.000000
   44        5.007062      5.022014   1.000000   1.000000
   45        5.222433      5.281517   1.000000   1.000000
   46        5.496398      5.489082   1.000000   1.000000
   47        5.785929      5.694233   1.000000   1.000000
   48        8.257719      8.227769   0.000000   0.000000
   49        8.347952      8.340157   0.000000   0.000000
   50        8.471741      8.477368   0.000000   0.000000
   51        8.924786      8.904400   0.000000   0.000000
   52        9.085115      9.148421   0.000000   0.000000
   53        9.804287      9.886505   0.000000   0.000000
   54       10.074549      9.984355   0.000000   0.000000
   55       10.940854     10.918208   0.000000   0.000000
   56       11.336140     11.345268   0.000000   0.000000
 
  0.5000000E+00  0.1521739E+00  0.0000000E+00  0.8333333E-02
    1      -50.871313    -50.866390   1.000000   1.000000
    2      -50.809699    -50.805065   1.000000   1.000000
    3      -50.809658    -50.805045   1.000000   1.000000
    4      -46.087328    -46.092174   1.000000   1.000000
    5      -46.042038    -46.046685   1.000000   1.000000
    6      -46.042027    -46.046651   1.000000   1.000000
    7      -16.151114    -16.150849   1.000000   1.000000
    8      -16.132982    -16.133943   1.000000   1.000000
    9      -16.118527    -16.116855   1.000000   1.000000
   10      -16.105833    -16.106873   1.000000   1.000000
   11      -16.080533    -16.080116   1.000000   1.000000
   12      -16.076250    -16.077040   1.000000   1.000000
   13      -16.066199    -16.066717   1.000000   1.000000
   14      -16.065309    -16.064076   1.000000   1.000000
   15      -16.055224    -16.055590   1.000000   1.000000
   16      -16.046334    -16.046247   1.000000   1.000000
   17      -11.811690    -11.808575   1.000000   1.000000
   18      -11.556305    -11.560123   1.000000   1.000000
   19      -10.819372    -10.824436   1.000000   1.000000
   20      -10.747122    -10.721031   1.000000   1.000000
   21      -10.646569    -10.676577   1.000000   1.000000
   22      -10.549002    -10.538728   1.000000   1.000000
   23       -3.559196     -3.557853   1.000000   1.000000
   24       -3.333641     -3.335546   1.000000   1.000000
   25       -0.632589     -0.625773   1.000000   1.000000
   26       -0.435963     -0.438670   1.000000   1.000000
   27       -0.311511     -0.354238   1.000000   1.000000
   28       -0.179778     -0.160288   1.000000   1.000000
   29        0.022207      0.026318   1.000000   1.000000
   30        1.007919      1.094916   1.000000   1.000000
   31        1.441957      1.529069   1.000000   1.000000
   32        1.706952      1.782124   1.000000   1.000000
   33        2.227529      2.119299   1.000000   1.000000
   34        2.616753      2.375427   1.000000   1.000000
   35        2.695402      2.616016   1.000000   1.000000
   36        2.891603      2.855103   1.000000   1.000000
   37        3.076458      3.310671   1.000000   1.000000
   38        3.690697      3.621282   1.000000   1.000000
   39        3.957652      4.059057   1.000000   1.000000
   40        4.130876      4.095606   1.000000   1.000000
   41        4.358577      4.385293   1.000000   1.000000
   42        4.572128      4.576634   1.000000   1.000000
   43        4.658160      4.663357   1.000000   1.000000
   44        4.969293      5.006708   1.000000   1.000000
   45        5.220839      5.266221   1.000000   1.000000
   46        5.485543      5.493906   1.000000   1.000000
   47        5.793021      5.676952   1.000000   1.000000
   48        8.273766      8.235529   0.000000   0.000000
   49        8.352991      8.344749   0.000000   0.000000
   50        8.468277      8.474770   0.000000   0.000000
   51        8.895683      8.882427   0.000000   0.000000
   52        9.101083      9.168464   0.000000   0.000000
   53        9.778323      9.876791   0.000000   0.000000
   54       10.102338      9.993820   0.000000   0.000000
   55       10.918164     10.897668   0.000000   0.000000
   56       11.339861     11.346359   0.000000   0.000000
 
  0.5000000E+00  0.1739130E+00  0.0000000E+00  0.8333333E-02
    1      -50.871312    -50.866389   1.000000   1.000000
    2      -50.809697    -50.805063   1.000000   1.000000
    3      -50.809657    -50.805044   1.000000   1.000000
    4      -46.087327    -46.092173   1.000000   1.000000
    5      -46.042037    -46.046684   1.000000   1.000000
    6      -46.042026    -46.046649   1.000000   1.000000
    7      -16.154088    -16.153864   1.000000   1.000000
    8      -16.133207    -16.134045   1.000000   1.000000
    9      -16.117443    -16.115872   1.000000   1.000000
   10      -16.104143    -16.105168   1.000000   1.000000
   11      -16.081156    -16.080817   1.000000   1.000000
   12      -16.076124    -16.076879   1.000000   1.000000
   13      -16.066470    -16.066885   1.000000   1.000000
   14      -16.065232    -16.064051   1.000000   1.000000
   15      -16.055194    -16.055549   1.000000   1.000000
   16      -16.044795    -16.044726   1.000000   1.000000
   17      -11.817065    -11.813771   1.000000   1.000000
   18      -11.529216    -11.533519   1.000000   1.000000
   19      -10.834600    -10.839045   1.000000   1.000000
   20      -10.759489    -10.737107   1.000000   1.000000
   21      -10.652108    -10.678190   1.000000   1.000000
   22      -10.542514    -10.532729   1.000000   1.000000
   23       -3.579356     -3.577969   1.000000   1.000000
   24       -3.317931     -3.320051   1.000000   1.000000
   25       -0.650782     -0.644991   1.000000   1.000000
   26       -0.432641     -0.436125   1.000000   1.000000
   27       -0.309335     -0.355265   1.000000   1.000000
   28       -0.165696     -0.145835   1.000000   1.000000
   29        0.018677      0.022194   1.000000   1.000000
   30        0.994549      1.091291   1.000000   1.000000
   31        1.458948      1.581764   1.000000   1.000000
   32        1.730520      1.792256   1.000000   1.000000
   33        2.238628      2.132574   1.000000   1.000000
   34        2.621276      2.362131   1.000000   1.000000
   35        2.758148      2.633138   1.000000   1.000000
   36        2.906832      2.861696   1.000000   1.000000
   37        3.090203      3.363575   1.000000   1.000000
   38        3.686990      3.605455   1.000000   1.000000
   39        3.927635      4.021622   1.000000   1.000000
   40        4.087470      4.078905   1.000000   1.000000
   41        4.358947      4.386088   1.000000   1.000000
   42        4.574362      4.568052   1.000000   1.000000
   43        4.654222      4.663571   1.000000   1.000000
   44        4.930709      4.995151   1.000000   1.000000
   45        5.217929      5.239471   1.000000   1.000000
   46        5.472399      5.503347   1.000000   1.000000
   47        5.798350      5.659327   1.000000   1.000000
   48        8.290343      8.243295   0.000000   0.000000
   49        8.358317      8.350303   0.000000   0.000000
   50        8.465160      8.471172   0.000000   0.000000
   51        8.862781      8.858489   0.000000   0.000000
   52        9.120145      9.188743   0.000000   0.000000
   53        9.747751      9.853339   0.000000   0.000000
   54       10.131574     10.014214   0.000000   0.000000
   55       10.900970     10.885004   0.000000   0.000000
   56       11.338122     11.346809   0.000000   0.000000
 