   10   10    1    2
  0.1285067E+02  0.5704587E-09  0.5704587E-09  0.5704587E-09  0.5000000E-15
  1.000000000000000E-004
  CAR 
 unknown system                          
     94    120     56
 
  0.5000000E+00  0.0000000E+00  0.0000000E+00  0.8333333E-02
    1      -51.375200    -51.370485   1.000000   1.000000
    2      -51.319239    -51.314812   1.000000   1.000000
    3      -51.319215    -51.314778   1.000000   1.000000
    4      -46.450483    -46.455121   1.000000   1.000000
    5      -46.409325    -46.413766   1.000000   1.000000
    6      -46.409298    -46.413745   1.000000   1.000000
    7      -16.078161    -16.078255   1.000000   1.000000
    8      -16.077306    -16.077242   1.000000   1.000000
    9      -16.064594    -16.064702   1.000000   1.000000
   10      -16.063646    -16.063531   1.000000   1.000000
   11      -16.024455    -16.024410   1.000000   1.000000
   12      -16.023666    -16.023709   1.000000   1.000000
   13      -16.012654    -16.012602   1.000000   1.000000
   14      -16.011500    -16.011560   1.000000   1.000000
   15      -16.001376    -16.001514   1.000000   1.000000
   16      -16.000564    -16.000393   1.000000   1.000000
   17      -11.681948    -11.680649   1.000000   1.000000
   18      -11.647175    -11.648105   1.000000   1.000000
   19      -10.726225    -10.724670   1.000000   1.000000
   20      -10.645546    -10.646525   1.000000   1.000000
   21      -10.578719    -10.578683   1.000000   1.000000
   22      -10.528892    -10.529400   1.000000   1.000000
   23       -3.443944     -3.443678   1.000000   1.000000
   24       -3.421101     -3.420825   1.000000   1.000000
   25       -1.650347     -1.646690   1.000000   1.000000
   26       -1.608765     -1.605222   1.000000   1.000000
   27       -1.461226     -1.457111   1.000000   1.000000
   28       -1.433177     -1.429174   1.000000   1.000000
   29       -1.197048     -1.193041   1.000000   1.000000
   30        1.105287      1.104581   1.000000   1.000000
   31        1.280458      1.280845   1.000000   1.000000
   32        1.754822      1.755009   1.000000   1.000000
   33        2.053414      2.053235   1.000000   1.000000
   34        2.353607      2.353341   1.000000   1.000000
   35        2.576369      2.575929   1.000000   1.000000
   36        2.837412      2.838367   1.000000   1.000000
   37        3.084163      3.083391   1.000000   1.000000
   38        3.716130      3.715357   1.000000   1.000000
   39        4.127457      4.127924   1.000000   1.000000
   40        4.311623      4.311361   1.000000   1.000000
   41        4.428122      4.427004   1.000000   1.000000
   42        4.622984      4.623337   1.000000   1.000000
   43        4.732866      4.732467   1.000000   1.000000
   44        5.038253      5.039380   1.000000   1.000000
   45        5.190762      5.191108   1.000000   1.000000
   46        5.485363      5.484971   1.000000   1.000000
   47        5.723843      5.724091   1.000000   1.000000
   48        8.612292      8.609042   0.000000   0.000000
   49        8.827041      8.823474   0.000000   0.000000
   50        8.967250      8.963619   0.000000   0.000000
   51        9.205213      9.202105   0.000000   0.000000
   52        9.269115      9.265920   0.000000   0.000000
   53        9.878318      9.878989   0.000000   0.000000
   54       10.074054     10.072727   0.000000   0.000000
   55       11.170705     11.170639   0.000000   0.000000
   56       11.254916     11.254811   0.000000   0.000000
 
  0.5000000E+00  0.2173913E-01  0.0000000E+00  0.8333333E-02
    1      -51.375199    -51.370485   1.000000   1.000000
    2      -51.319237    -51.314809   1.000000   1.000000
    3      -51.319212    -51.314775   1.000000   1.000000
    4      -46.450483    -46.455121   1.000000   1.000000
    5      -46.409322    -46.413764   1.000000   1.000000
    6      -46.409295    -46.413741   1.000000   1.000000
    7      -16.079200    -16.078923   1.000000   1.000000
    8      -16.076794    -16.077205   1.000000   1.000000
    9      -16.065161    -16.064744   1.000000   1.000000
   10      -16.062569    -16.062875   1.000000   1.000000
   11      -16.024521    -16.024398   1.000000   1.000000
   12      -16.023650    -16.023783   1.000000   1.000000
   13      -16.012628    -16.012629   1.000000   1.000000
   14      -16.011552    -16.011531   1.000000   1.000000
   15      -16.001606    -16.001730   1.000000   1.000000
   16      -16.000162    -16.000021   1.000000   1.000000
   17      -11.689350    -11.687835   1.000000   1.000000
   18      -11.638147    -11.639323   1.000000   1.000000
   19      -10.726930    -10.725927   1.000000   1.000000
   20      -10.647080    -10.646381   1.000000   1.000000
   21      -10.579227    -10.581389   1.000000   1.000000
   22      -10.528035    -10.527432   1.000000   1.000000
   23       -3.451643     -3.450911   1.000000   1.000000
   24       -3.413739     -3.413983   1.000000   1.000000
   25       -1.652916     -1.649313   1.000000   1.000000
   26       -1.607373     -1.603501   1.000000   1.000000
   27       -1.463473     -1.461017   1.000000   1.000000
   28       -1.429659     -1.424641   1.000000   1.000000
   29       -1.197434     -1.193351   1.000000   1.000000
   30        1.100555      1.103025   1.000000   1.000000
   31        1.286433      1.286208   1.000000   1.000000
   32        1.750431      1.756022   1.000000   1.000000
   33        2.058732      2.053230   1.000000   1.000000
   34        2.361260      2.352570   1.000000   1.000000
   35        2.576096      2.576590   1.000000   1.000000
   36        2.838485      2.837764   1.000000   1.000000
   37        3.084555      3.090816   1.000000   1.000000
   38        3.715428      3.712568   1.000000   1.000000
   39        4.123091      4.127758   1.000000   1.000000
   40        4.310547      4.305496   1.000000   1.000000
   41        4.427474      4.428566   1.000000   1.000000
   42        4.623004      4.623846   1.000000   1.000000
   43        4.731722      4.732035   1.000000   1.000000
   44        5.034063      5.035449   1.000000   1.000000
   45        5.190671      5.193224   1.000000   1.000000
   46        5.485778      5.484768   1.000000   1.000000
   47        5.725246      5.722344   1.000000   1.000000
   48        8.614455      8.610326   0.000000   0.000000
   49        8.827526      8.823788   0.000000   0.000000
   50        8.966794      8.963722   0.000000   0.000000
   51        9.204190      9.198149   0.000000   0.000000
   52        9.267964      9.269819   0.000000   0.000000
   53        9.878679      9.880703   0.000000   0.000000
   54       10.075144     10.072243   0.000000   0.000000
   55       11.153952     11.148777   0.000000   0.000000
   56       11.269805     11.274576   0.000000   0.000000
 
  0.5000000E+00  0.4347826E-01  0.0000000E+00  0.8333333E-02
    1      -51.375199    -51.370485   1.000000   1.000000
    2      -51.319236    -51.314806   1.000000   1.000000
    3      -51.319209    -51.314774   1.000000   1.000000
    4      -46.450482    -46.455120   1.000000   1.000000
    5      -46.409318    -46.413762   1.000000   1.000000
    6      -46.409294    -46.413738   1.000000   1.000000
    7      -16.081075    -16.080611   1.000000   1.000000
    8      -16.076416    -16.077220   1.000000   1.000000
    9      -16.065531    -16.064620   1.000000   1.000000
   10      -16.060791    -16.061388   1.000000   1.000000
   11      -16.024725    -16.024386   1.000000   1.000000
   12      -16.023619    -16.024001   1.000000   1.000000
   13      -16.012568    -16.012720   1.000000   1.000000
   14      -16.011711    -16.011464   1.000000   1.000000
   15      -16.001932    -16.002084   1.000000   1.000000
   16      -15.999367    -15.999239   1.000000   1.000000
   17      -11.702736    -11.700696   1.000000   1.000000
   18      -11.620059    -11.621843   1.000000   1.000000
   19      -10.729150    -10.729668   1.000000   1.000000
   20      -10.651494    -10.646122   1.000000   1.000000
   21      -10.580878    -10.588542   1.000000   1.000000
   22      -10.525631    -10.522562   1.000000   1.000000
   23       -3.465686     -3.464373   1.000000   1.000000
   24       -3.400726     -3.401711   1.000000   1.000000
   25       -1.659642     -1.656120   1.000000   1.000000
   26       -1.604145     -1.599406   1.000000   1.000000
   27       -1.468124     -1.468961   1.000000   1.000000
   28       -1.421286     -1.414837   1.000000   1.000000
   29       -1.198597     -1.194297   1.000000   1.000000
   30        1.088151      1.098941   1.000000   1.000000
   31        1.302534      1.301629   1.000000   1.000000
   32        1.739176      1.759043   1.000000   1.000000
   33        2.072769      2.053222   1.000000   1.000000
   34        2.383992      2.350316   1.000000   1.000000
   35        2.575297      2.578799   1.000000   1.000000
   36        2.841690      2.836451   1.000000   1.000000
   37        3.085773      3.112211   1.000000   1.000000
   38        3.713405      3.704484   1.000000   1.000000
   39        4.110726      4.126991   1.000000   1.000000
   40        4.306086      4.289169   1.000000   1.000000
   41        4.425943      4.432264   1.000000   1.000000
   42        4.622962      4.625164   1.000000   1.000000
   43        4.728648      4.730673   1.000000   1.000000
   44        5.022197      5.024822   1.000000   1.000000
   45        5.189950      5.198210   1.000000   1.000000
   46        5.486644      5.484335   1.000000   1.000000
   47        5.729459      5.717264   1.000000   1.000000
   48        8.620851      8.614101   0.000000   0.000000
   49        8.828983      8.824717   0.000000   0.000000
   50        8.965424      8.963933   0.000000   0.000000
   51        9.200376      9.188052   0.000000   0.000000
   52        9.265377      9.279684   0.000000   0.000000
   53        9.879035      9.885808   0.000000   0.000000
   54       10.078849     10.070596   0.000000   0.000000
   55       11.120283     11.106997   0.000000   0.000000
   56       11.297421     11.306513   0.000000   0.000000
 
  0.5000000E+00  0.6521739E-01  0.0000000E+00  0.8333333E-02
    1      -51.375200    -51.370486   1.000000   1.000000
    2      -51.319236    -51.314805   1.000000   1.000000
    3      -51.319208    -51.314774   1.000000   1.000000
    4      -46.450483    -46.455121   1.000000   1.000000
    5      -46.409316    -46.413763   1.000000   1.000000
    6      -46.409295    -46.413737   1.000000   1.000000
    7      -16.083403    -16.082925   1.000000   1.000000
    8      -16.076315    -16.077292   1.000000   1.000000
    9      -16.065463    -16.064268   1.000000   1.000000
   10      -16.058805    -16.059530   1.000000   1.000000
   11      -16.025052    -16.024510   1.000000   1.000000
   12      -16.023571    -16.024204   1.000000   1.000000
   13      -16.012483    -16.012865   1.000000   1.000000
   14      -16.011950    -16.011368   1.000000   1.000000
   15      -16.002195    -16.002394   1.000000   1.000000
   16      -15.998361    -15.998242   1.000000   1.000000
   17      -11.716209    -11.713573   1.000000   1.000000
   18      -11.598854    -11.601372   1.000000   1.000000
   19      -10.732961    -10.735695   1.000000   1.000000
   20      -10.658289    -10.646019   1.000000   1.000000
   21      -10.583748    -10.598377   1.000000   1.000000
   22      -10.521964    -10.516423   1.000000   1.000000
   23       -3.481454     -3.479649   1.000000   1.000000
   24       -3.386665     -3.388397   1.000000   1.000000
   25       -1.668909     -1.665408   1.000000   1.000000
   26       -1.600556     -1.594565   1.000000   1.000000
   27       -1.472874     -1.477538   1.000000   1.000000
   28       -1.410593     -1.403201   1.000000   1.000000
   29       -1.200504     -1.195887   1.000000   1.000000
   30        1.071532      1.093558   1.000000   1.000000
   31        1.325230      1.325638   1.000000   1.000000
   32        1.725295      1.764037   1.000000   1.000000
   33        2.091590      2.053248   1.000000   1.000000
   34        2.420870      2.346788   1.000000   1.000000
   35        2.574102      2.583129   1.000000   1.000000
   36        2.846998      2.835502   1.000000   1.000000
   37        3.087956      3.145453   1.000000   1.000000
   38        3.710328      3.691909   1.000000   1.000000
   39        4.092112      4.124932   1.000000   1.000000
   40        4.295481      4.264881   1.000000   1.000000
   41        4.424423      4.436385   1.000000   1.000000
   42        4.622581      4.626647   1.000000   1.000000
   43        4.724544      4.728260   1.000000   1.000000
   44        5.004307      5.010043   1.000000   1.000000
   45        5.187703      5.203006   1.000000   1.000000
   46        5.487011      5.484190   1.000000   1.000000
   47        5.736416      5.709315   1.000000   1.000000
   48        8.631226      8.620176   0.000000   0.000000
   49        8.831452      8.826268   0.000000   0.000000
   50        8.963182      8.964013   0.000000   0.000000
   51        9.191920      9.174393   0.000000   0.000000
   52        9.263659      9.292827   0.000000   0.000000
   53        9.877513      9.894169   0.000000   0.000000
   54       10.086334     10.067324   0.000000   0.000000
   55       11.083360     11.062434   0.000000   0.000000
   56       11.324529     11.336981   0.000000   0.000000
 
  0.5000000E+00  0.8695652E-01  0.0000000E+00  0.8333333E-02
    1      -51.375201    -51.370487   1.000000   1.000000
    2      -51.319237    -51.314805   1.000000   1.000000
    3      -51.319208    -51.314775   1.000000   1.000000
    4      -46.450484    -46.455122   1.000000   1.000000
    5      -46.409317    -46.413763   1.000000   1.000000
    6      -46.409295    -46.413737   1.000000   1.000000
    7      -16.086023    -16.085584   1.000000   1.000000
    8      -16.076379    -16.077387   1.000000   1.000000
    9      -16.065053    -16.063734   1.000000   1.000000
   10      -16.056764    -16.057546   1.000000   1.000000
   11      -16.025477    -16.024952   1.000000   1.000000
   12      -16.023502    -16.024172   1.000000   1.000000
   13      -16.012376    -16.013048   1.000000   1.000000
   14      -16.012238    -16.011248   1.000000   1.000000
   15      -16.002391    -16.002637   1.000000   1.000000
   16      -15.997183    -15.997076   1.000000   1.000000
   17      -11.728518    -11.725294   1.000000   1.000000
   18      -11.575809    -11.579104   1.000000   1.000000
   19      -10.738491    -10.743694   1.000000   1.000000
   20      -10.666766    -10.646519   1.000000   1.000000
   21      -10.587811    -10.609537   1.000000   1.000000
   22      -10.517393    -10.510009   1.000000   1.000000
   23       -3.498279     -3.496070   1.000000   1.000000
   24       -3.372175     -3.374652   1.000000   1.000000
   25       -1.679610     -1.676101   1.000000   1.000000
   26       -1.597467     -1.589972   1.000000   1.000000
   27       -1.476881     -1.485597   1.000000   1.000000
   28       -1.398779     -1.390900   1.000000   1.000000
   29       -1.203098     -1.198114   1.000000   1.000000
   30        1.053521      1.087948   1.000000   1.000000
   31        1.351566      1.356803   1.000000   1.000000
   32        1.712970      1.770942   1.000000   1.000000
   33        2.111954      2.053360   1.000000   1.000000
   34        2.469745      2.342418   1.000000   1.000000
   35        2.572906      2.590232   1.000000   1.000000
   36        2.854341      2.835873   1.000000   1.000000
   37        3.091292      3.188037   1.000000   1.000000
   38        3.706642      3.676029   1.000000   1.000000
   39        4.069164      4.120685   1.000000   1.000000
   40        4.276440      4.234774   1.000000   1.000000
   41        4.423411      4.439879   1.000000   1.000000
   42        4.621460      4.627153   1.000000   1.000000
   43        4.720385      4.724848   1.000000   1.000000
   44        4.982211      4.993616   1.000000   1.000000
   45        5.183304      5.204372   1.000000   1.000000
   46        5.485769      5.485073   1.000000   1.000000
   47        5.745807      5.699214   1.000000   1.000000
   48        8.645186      8.628245   0.000000   0.000000
   49        8.834966      8.828455   0.000000   0.000000
   50        8.960153      8.963554   0.000000   0.000000
   51        9.177208      9.158571   0.000000   0.000000
   52        9.265035      9.307790   0.000000   0.000000
   53        9.871848      9.905376   0.000000   0.000000
   54       10.098861     10.061923   0.000000   0.000000
   55       11.047633     11.020286   0.000000   0.000000
   56       11.347090     11.360757   0.000000   0.000000
 
  0.5000000E+00  0.1086957E+00  0.0000000E+00  0.8333333E-02
    1      -51.375201    -51.370487   1.000000   1.000000
    2      -51.319237    -51.314807   1.000000   1.000000
    3      -51.319210    -51.314775   1.000000   1.000000
    4      -46.450484    -46.455122   1.000000   1.000000
    5      -46.409320    -46.413764   1.000000   1.000000
    6      -46.409296    -46.413740   1.000000   1.000000
    7      -16.088822    -16.088431   1.000000   1.000000
    8      -16.076527    -16.077491   1.000000   1.000000
    9      -16.064399    -16.063055   1.000000   1.000000
   10      -16.054777    -16.055586   1.000000   1.000000
   11      -16.025975    -16.025516   1.000000   1.000000
   12      -16.023415    -16.024078   1.000000   1.000000
   13      -16.012565    -16.013253   1.000000   1.000000
   14      -16.012239    -16.011118   1.000000   1.000000
   15      -16.002539    -16.002825   1.000000   1.000000
   16      -15.995857    -15.995764   1.000000   1.000000
   17      -11.739305    -11.735543   1.000000   1.000000
   18      -11.551388    -11.555462   1.000000   1.000000
   19      -10.745914    -10.753439   1.000000   1.000000
   20      -10.676336    -10.648523   1.000000   1.000000
   21      -10.592960    -10.620752   1.000000   1.000000
   22      -10.512342    -10.503820   1.000000   1.000000
   23       -3.516042     -3.513515   1.000000   1.000000
   24       -3.357338     -3.360539   1.000000   1.000000
   25       -1.691110     -1.687610   1.000000   1.000000
   26       -1.595183     -1.586115   1.000000   1.000000
   27       -1.479929     -1.492606   1.000000   1.000000
   28       -1.386565     -1.378522   1.000000   1.000000
   29       -1.206277     -1.200949   1.000000   1.000000
   30        1.035907      1.082696   1.000000   1.000000
   31        1.379543      1.394063   1.000000   1.000000
   32        1.705358      1.779633   1.000000   1.000000
   33        2.132149      2.053606   1.000000   1.000000
   34        2.526071      2.337870   1.000000   1.000000
   35        2.573691      2.600592   1.000000   1.000000
   36        2.863603      2.838113   1.000000   1.000000
   37        3.095975      3.237491   1.000000   1.000000
   38        3.702973      3.658307   1.000000   1.000000
   39        4.043498      4.113390   1.000000   1.000000
   40        4.248452      4.200415   1.000000   1.000000
   41        4.422449      4.442294   1.000000   1.000000
   42        4.619094      4.625093   1.000000   1.000000
   43        4.716750      4.720924   1.000000   1.000000
   44        4.957515      4.977471   1.000000   1.000000
   45        5.176674      5.199688   1.000000   1.000000
   46        5.482071      5.487658   1.000000   1.000000
   47        5.756935      5.687854   1.000000   1.000000
   48        8.662201      8.637916   0.000000   0.000000
   49        8.839525      8.831304   0.000000   0.000000
   50        8.956456      8.961935   0.000000   0.000000
   51        9.156168      9.141317   0.000000   0.000000
   52        9.270211      9.323849   0.000000   0.000000
   53        9.860390      9.918231   0.000000   0.000000
   54       10.116953     10.054462   0.000000   0.000000
   55       11.015192     10.983512   0.000000   0.000000
   56       11.363538     11.376567   0.000000   0.000000
 
  0.5000000E+00  0.1304348E+00  0.0000000E+00  0.8333333E-02
    1      -51.375201    -51.370487   1.000000   1.000000
    2      -51.319237    -51.314806   1.000000   1.000000
    3      -51.319208    -51.314775   1.000000   1.000000
    4      -46.450484    -46.455122   1.000000   1.000000
    5      -46.409318    -46.413763   1.000000   1.000000
    6      -46.409295    -46.413737   1.000000   1.000000
    7      -16.091705    -16.091357   1.000000   1.000000
    8      -16.076701    -16.077585   1.000000   1.000000
    9      -16.063579    -16.062260   1.000000   1.000000
   10      -16.052912    -16.053735   1.000000   1.000000
   11      -16.026514    -16.026129   1.000000   1.000000
   12      -16.023310    -16.023954   1.000000   1.000000
   13      -16.012885    -16.013468   1.000000   1.000000
   14      -16.012103    -16.010990   1.000000   1.000000
   15      -16.002637    -16.002951   1.000000   1.000000
   16      -15.994407    -15.994327   1.000000   1.000000
   17      -11.748424    -11.744204   1.000000   1.000000
   18      -11.525864    -11.530693   1.000000   1.000000
   19      -10.755376    -10.764676   1.000000   1.000000
   20      -10.686486    -10.653758   1.000000   1.000000
   21      -10.598928    -10.630023   1.000000   1.000000
   22      -10.507103    -10.498046   1.000000   1.000000
   23       -3.534690     -3.531933   1.000000   1.000000
   24       -3.342127     -3.346005   1.000000   1.000000
   25       -1.703020     -1.699587   1.000000   1.000000
   26       -1.593702     -1.583234   1.000000   1.000000
   27       -1.482035     -1.498192   1.000000   1.000000
   28       -1.374560     -1.366530   1.000000   1.000000
   29       -1.209872     -1.204297   1.000000   1.000000
   30        1.019779      1.077963   1.000000   1.000000
   31        1.407867      1.436731   1.000000   1.000000
   32        1.704580      1.789926   1.000000   1.000000
   33        2.151435      2.054042   1.000000   1.000000
   34        2.561256      2.333956   1.000000   1.000000
   35        2.602190      2.614441   1.000000   1.000000
   36        2.874613      2.842436   1.000000   1.000000
   37        3.102132      3.291267   1.000000   1.000000
   38        3.700138      3.640540   1.000000   1.000000
   39        4.016337      4.102258   1.000000   1.000000
   40        4.212606      4.163178   1.000000   1.000000
   41        4.420549      4.443216   1.000000   1.000000
   42        4.614834      4.618821   1.000000   1.000000
   43        4.713609      4.717442   1.000000   1.000000
   44        4.931632      4.962935   1.000000   1.000000
   45        5.168214      5.187332   1.000000   1.000000
   46        5.475548      5.492132   1.000000   1.000000
   47        5.768757      5.676232   1.000000   1.000000
   48        8.681637      8.648719   0.000000   0.000000
   49        8.845035      8.834843   0.000000   0.000000
   50        8.952301      8.958315   0.000000   0.000000
   51        9.129744      9.123287   0.000000   0.000000
   52        9.278859      9.340593   0.000000   0.000000
   53        9.842673      9.929562   0.000000   0.000000
   54       10.140013     10.047034   0.000000   0.000000
   55       10.987313     10.954095   0.000000   0.000000
   56       11.373324     11.384048   0.000000   0.000000
 
  0.5000000E+00  0.1521739E+00  0.0000000E+00  0.8333333E-02
    1      -51.375201    -51.370487   1.000000   1.000000
    2      -51.319237    -51.314805   1.000000   1.000000
    3      -51.319207    -51.314774   1.000000   1.000000
    4      -46.450484    -46.455121   1.000000   1.000000
    5      -46.409317    -46.413763   1.000000   1.000000
    6      -46.409294    -46.413736   1.000000   1.000000
    7      -16.094623    -16.094311   1.000000   1.000000
    8      -16.076876    -16.077667   1.000000   1.000000
    9      -16.062637    -16.061368   1.000000   1.000000
   10      -16.051220    -16.052049   1.000000   1.000000
   11      -16.027069    -16.026758   1.000000   1.000000
   12      -16.023192    -16.023809   1.000000   1.000000
   13      -16.013203    -16.013689   1.000000   1.000000
   14      -16.011974    -16.010884   1.000000   1.000000
   15      -16.002686    -16.003014   1.000000   1.000000
   16      -15.992868    -15.992801   1.000000   1.000000
   17      -11.755873    -11.751283   1.000000   1.000000
   18      -11.499436    -11.504972   1.000000   1.000000
   19      -10.766977    -10.777269   1.000000   1.000000
   20      -10.696921    -10.663693   1.000000   1.000000
   21      -10.605472    -10.635743   1.000000   1.000000
   22      -10.501990    -10.492850   1.000000   1.000000
   23       -3.554168     -3.551272   1.000000   1.000000
   24       -3.326524     -3.331004   1.000000   1.000000
   25       -1.715092     -1.711807   1.000000   1.000000
   26       -1.592881     -1.581410   1.000000   1.000000
   27       -1.483307     -1.502095   1.000000   1.000000
   28       -1.363388     -1.355419   1.000000   1.000000
   29       -1.213629     -1.207983   1.000000   1.000000
   30        1.005771      1.073632   1.000000   1.000000
   31        1.435787      1.484340   1.000000   1.000000
   32        1.711833      1.801548   1.000000   1.000000
   33        2.169351      2.054744   1.000000   1.000000
   34        2.564472      2.331487   1.000000   1.000000
   35        2.666501      2.631789   1.000000   1.000000
   36        2.887132      2.848849   1.000000   1.000000
   37        3.109720      3.346190   1.000000   1.000000
   38        3.699128      3.625205   1.000000   1.000000
   39        3.988552      4.085918   1.000000   1.000000
   40        4.170823      4.125177   1.000000   1.000000
   41        4.416853      4.441812   1.000000   1.000000
   42        4.607877      4.607600   1.000000   1.000000
   43        4.710385      4.715269   1.000000   1.000000
   44        4.905919      4.950761   1.000000   1.000000
   45        5.158584      5.166867   1.000000   1.000000
   46        5.466274      5.497851   1.000000   1.000000
   47        5.780081      5.665422   1.000000   1.000000
   48        8.702775      8.660118   0.000000   0.000000
   49        8.851234      8.839103   0.000000   0.000000
   50        8.947973      8.951619   0.000000   0.000000
   51        9.098930      9.105324   0.000000   0.000000
   52        9.290489      9.357683   0.000000   0.000000
   53        9.819234      9.932426   0.000000   0.000000
   54       10.166618     10.045801   0.000000   0.000000
   55       10.964562     10.932878   0.000000   0.000000
   56       11.377148     11.383610   0.000000   0.000000
 
  0.5000000E+00  0.1739130E+00  0.0000000E+00  0.8333333E-02
    1      -51.375201    -51.370487   1.000000   1.000000
    2      -51.319236    -51.314804   1.000000   1.000000
    3      -51.319206    -51.314773   1.000000   1.000000
    4      -46.450484    -46.455122   1.000000   1.000000
    5      -46.409315    -46.413762   1.000000   1.000000
    6      -46.409294    -46.413736   1.000000   1.000000
    7      -16.097525    -16.097245   1.000000   1.000000
    8      -16.077033    -16.077730   1.000000   1.000000
    9      -16.061610    -16.060402   1.000000   1.000000
   10      -16.049732    -16.050561   1.000000   1.000000
   11      -16.027610    -16.027368   1.000000   1.000000
   12      -16.023061    -16.023649   1.000000   1.000000
   13      -16.013511    -16.013911   1.000000   1.000000
   14      -16.011870    -16.010822   1.000000   1.000000
   15      -16.002691    -16.003016   1.000000   1.000000
   16      -15.991261    -15.991203   1.000000   1.000000
   17      -11.761636    -11.756767   1.000000   1.000000
   18      -11.472316    -11.478507   1.000000   1.000000
   19      -10.780634    -10.791060   1.000000   1.000000
   20      -10.707481    -10.676912   1.000000   1.000000
   21      -10.612346    -10.639126   1.000000   1.000000
   22      -10.497166    -10.488277   1.000000   1.000000
   23       -3.574371     -3.571422   1.000000   1.000000
   24       -3.310544     -3.315521   1.000000   1.000000
   25       -1.727133     -1.724088   1.000000   1.000000
   26       -1.592497     -1.580574   1.000000   1.000000
   27       -1.483891     -1.504218   1.000000   1.000000
   28       -1.353719     -1.345745   1.000000   1.000000
   29       -1.217178     -1.211696   1.000000   1.000000
   30        0.994242      1.069462   1.000000   1.000000
   31        1.463132      1.536537   1.000000   1.000000
   32        1.727442      1.814158   1.000000   1.000000
   33        2.185374      2.055870   1.000000   1.000000
   34        2.566598      2.331126   1.000000   1.000000
   35        2.733352      2.652520   1.000000   1.000000
   36        2.900901      2.857249   1.000000   1.000000
   37        3.118436      3.397297   1.000000   1.000000
   38        3.701009      3.616438   1.000000   1.000000
   39        3.960731      4.059959   1.000000   1.000000
   40        4.125367      4.091801   1.000000   1.000000
   41        4.410897      4.436627   1.000000   1.000000
   42        4.597442      4.592513   1.000000   1.000000
   43        4.706103      4.714521   1.000000   1.000000
   44        4.881796      4.941188   1.000000   1.000000
   45        5.148517      5.138930   1.000000   1.000000
   46        5.454619      5.503353   1.000000   1.000000
   47        5.789780      5.656576   1.000000   1.000000
   48        8.724837      8.671517   0.000000   0.000000
   49        8.857578      8.844044   0.000000   0.000000
   50        8.943949      8.940737   0.000000   0.000000
   51        9.064518      9.088522   0.000000   0.000000
   52        9.304746      9.374865   0.000000   0.000000
   53        9.791185      9.919550   0.000000   0.000000
   54       10.195105     10.057834   0.000000   0.000000
   55       10.946803     10.919421   0.000000   0.000000
   56       11.375104     11.377060   0.000000   0.000000
 