   10   10    1    2
  0.1284526E+02  0.5703332E-09  0.5703332E-09  0.5703332E-09  0.5000000E-15
  1.000000000000000E-004
  CAR 
 unknown system                          
     94    120     56
 
  0.5000000E+00  0.0000000E+00  0.0000000E+00  0.8333333E-02
    1      -51.615395    -51.610337   1.000000   1.000000
    2      -51.562224    -51.557431   1.000000   1.000000
    3      -51.562187    -51.557410   1.000000   1.000000
    4      -46.627425    -46.632406   1.000000   1.000000
    5      -46.587879    -46.592682   1.000000   1.000000
    6      -46.587863    -46.592654   1.000000   1.000000
    7      -16.048976    -16.049050   1.000000   1.000000
    8      -16.048042    -16.047992   1.000000   1.000000
    9      -16.035304    -16.035440   1.000000   1.000000
   10      -16.034479    -16.034340   1.000000   1.000000
   11      -15.996163    -15.996157   1.000000   1.000000
   12      -15.995494    -15.995498   1.000000   1.000000
   13      -15.984273    -15.984278   1.000000   1.000000
   14      -15.983249    -15.983249   1.000000   1.000000
   15      -15.973083    -15.973227   1.000000   1.000000
   16      -15.972396    -15.972225   1.000000   1.000000
   17      -11.653596    -11.652543   1.000000   1.000000
   18      -11.621782    -11.622508   1.000000   1.000000
   19      -10.711318    -10.710211   1.000000   1.000000
   20      -10.632080    -10.632630   1.000000   1.000000
   21      -10.552355    -10.552540   1.000000   1.000000
   22      -10.499000    -10.499098   1.000000   1.000000
   23       -3.472468     -3.471942   1.000000   1.000000
   24       -3.444123     -3.443543   1.000000   1.000000
   25       -2.264438     -2.260473   1.000000   1.000000
   26       -2.208450     -2.204566   1.000000   1.000000
   27       -2.088821     -2.084312   1.000000   1.000000
   28       -2.019849     -2.015722   1.000000   1.000000
   29       -1.800819     -1.796727   1.000000   1.000000
   30        1.107108      1.106585   1.000000   1.000000
   31        1.274566      1.274938   1.000000   1.000000
   32        1.769155      1.769189   1.000000   1.000000
   33        2.053099      2.052956   1.000000   1.000000
   34        2.349663      2.349434   1.000000   1.000000
   35        2.568057      2.567629   1.000000   1.000000
   36        2.856535      2.857260   1.000000   1.000000
   37        3.123851      3.123104   1.000000   1.000000
   38        3.710438      3.709816   1.000000   1.000000
   39        4.136007      4.136323   1.000000   1.000000
   40        4.346314      4.346072   1.000000   1.000000
   41        4.465257      4.464301   1.000000   1.000000
   42        4.651036      4.651210   1.000000   1.000000
   43        4.766101      4.765822   1.000000   1.000000
   44        5.004312      5.005327   1.000000   1.000000
   45        5.179957      5.180250   1.000000   1.000000
   46        5.496789      5.496368   1.000000   1.000000
   47        5.725013      5.725192   1.000000   1.000000
   48        8.804420      8.801165   0.000000   0.000000
   49        9.082350      9.078593   0.000000   0.000000
   50        9.228700      9.224774   0.000000   0.000000
   51        9.341852      9.338593   0.000000   0.000000
   52        9.418011      9.414426   0.000000   0.000000
   53        9.907070      9.907501   0.000000   0.000000
   54       10.132657     10.131142   0.000000   0.000000
   55       11.192132     11.192007   0.000000   0.000000
   56       11.286553     11.286437   0.000000   0.000000
 
  0.5000000E+00  0.2173913E-01  0.0000000E+00  0.8333333E-02
    1      -51.615395    -51.610337   1.000000   1.000000
    2      -51.562222    -51.557428   1.000000   1.000000
    3      -51.562184    -51.557408   1.000000   1.000000
    4      -46.627425    -46.632406   1.000000   1.000000
    5      -46.587875    -46.592680   1.000000   1.000000
    6      -46.587861    -46.592649   1.000000   1.000000
    7      -16.049965    -16.049710   1.000000   1.000000
    8      -16.047571    -16.047935   1.000000   1.000000
    9      -16.035860    -16.035526   1.000000   1.000000
   10      -16.033424    -16.033670   1.000000   1.000000
   11      -15.996228    -15.996146   1.000000   1.000000
   12      -15.995475    -15.995565   1.000000   1.000000
   13      -15.984246    -15.984307   1.000000   1.000000
   14      -15.983302    -15.983223   1.000000   1.000000
   15      -15.973368    -15.973482   1.000000   1.000000
   16      -15.971936    -15.971808   1.000000   1.000000
   17      -11.661579    -11.660109   1.000000   1.000000
   18      -11.612182    -11.613357   1.000000   1.000000
   19      -10.711901    -10.711352   1.000000   1.000000
   20      -10.633260    -10.632543   1.000000   1.000000
   21      -10.553134    -10.554797   1.000000   1.000000
   22      -10.498324    -10.497604   1.000000   1.000000
   23       -3.479080     -3.477878   1.000000   1.000000
   24       -3.437812     -3.438003   1.000000   1.000000
   25       -2.265775     -2.262083   1.000000   1.000000
   26       -2.208220     -2.203744   1.000000   1.000000
   27       -2.089830     -2.086014   1.000000   1.000000
   28       -2.017688     -2.013389   1.000000   1.000000
   29       -1.801242     -1.797069   1.000000   1.000000
   30        1.102357      1.104756   1.000000   1.000000
   31        1.280795      1.280433   1.000000   1.000000
   32        1.765159      1.770225   1.000000   1.000000
   33        2.057368      2.052612   1.000000   1.000000
   34        2.357821      2.348704   1.000000   1.000000
   35        2.567875      2.569272   1.000000   1.000000
   36        2.857571      2.856785   1.000000   1.000000
   37        3.123912      3.129824   1.000000   1.000000
   38        3.710165      3.707361   1.000000   1.000000
   39        4.131974      4.135966   1.000000   1.000000
   40        4.344647      4.340041   1.000000   1.000000
   41        4.464672      4.465930   1.000000   1.000000
   42        4.651100      4.651498   1.000000   1.000000
   43        4.764842      4.765221   1.000000   1.000000
   44        5.000475      5.002359   1.000000   1.000000
   45        5.179355      5.181150   1.000000   1.000000
   46        5.497326      5.496536   1.000000   1.000000
   47        5.726563      5.723619   1.000000   1.000000
   48        8.806776      8.802625   0.000000   0.000000
   49        9.082722      9.078904   0.000000   0.000000
   50        9.228156      9.224826   0.000000   0.000000
   51        9.340797      9.335745   0.000000   0.000000
   52        9.416883      9.417222   0.000000   0.000000
   53        9.907560      9.909213   0.000000   0.000000
   54       10.133502     10.130622   0.000000   0.000000
   55       11.177279     11.171494   0.000000   0.000000
   56       11.299505     11.303767   0.000000   0.000000
 
  0.5000000E+00  0.4347826E-01  0.0000000E+00  0.8333333E-02
    1      -51.615395    -51.610337   1.000000   1.000000
    2      -51.562220    -51.557425   1.000000   1.000000
    3      -51.562182    -51.557407   1.000000   1.000000
    4      -46.627425    -46.632406   1.000000   1.000000
    5      -46.587872    -46.592678   1.000000   1.000000
    6      -46.587859    -46.592647   1.000000   1.000000
    7      -16.051803    -16.051361   1.000000   1.000000
    8      -16.047205    -16.047926   1.000000   1.000000
    9      -16.036204    -16.035450   1.000000   1.000000
   10      -16.031708    -16.032207   1.000000   1.000000
   11      -15.996427    -15.996143   1.000000   1.000000
   12      -15.995439    -15.995760   1.000000   1.000000
   13      -15.984186    -15.984405   1.000000   1.000000
   14      -15.983467    -15.983162   1.000000   1.000000
   15      -15.973736    -15.973872   1.000000   1.000000
   16      -15.971093    -15.970980   1.000000   1.000000
   17      -11.675488    -11.673259   1.000000   1.000000
   18      -11.593626    -11.595660   1.000000   1.000000
   19      -10.713763    -10.714774   1.000000   1.000000
   20      -10.636716    -10.632430   1.000000   1.000000
   21      -10.555510    -10.560980   1.000000   1.000000
   22      -10.496462    -10.493804   1.000000   1.000000
   23       -3.492221     -3.490081   1.000000   1.000000
   24       -3.425597     -3.427003   1.000000   1.000000
   25       -2.269581     -2.266574   1.000000   1.000000
   26       -2.207691     -2.201621   1.000000   1.000000
   27       -2.092432     -2.090471   1.000000   1.000000
   28       -2.011731     -2.007080   1.000000   1.000000
   29       -1.802513     -1.798110   1.000000   1.000000
   30        1.090009      1.099986   1.000000   1.000000
   31        1.297555      1.296127   1.000000   1.000000
   32        1.754803      1.773320   1.000000   1.000000
   33        2.068792      2.051598   1.000000   1.000000
   34        2.381807      2.346686   1.000000   1.000000
   35        2.567345      2.574171   1.000000   1.000000
   36        2.860659      2.855718   1.000000   1.000000
   37        3.124159      3.149355   1.000000   1.000000
   38        3.709393      3.700235   1.000000   1.000000
   39        4.120482      4.134684   1.000000   1.000000
   40        4.338673      4.323316   1.000000   1.000000
   41        4.463238      4.469668   1.000000   1.000000
   42        4.651103      4.652228   1.000000   1.000000
   43        4.761370      4.763292   1.000000   1.000000
   44        4.989734      4.994175   1.000000   1.000000
   45        5.177196      5.183051   1.000000   1.000000
   46        5.498508      5.497118   1.000000   1.000000
   47        5.731220      5.719069   1.000000   1.000000
   48        8.813742      8.806901   0.000000   0.000000
   49        9.083857      9.079828   0.000000   0.000000
   50        9.226515      9.224769   0.000000   0.000000
   51        9.337103      9.328119   0.000000   0.000000
   52        9.414128      9.424737   0.000000   0.000000
   53        9.908355      9.914337   0.000000   0.000000
   54       10.136434     10.128845   0.000000   0.000000
   55       11.146027     11.130809   0.000000   0.000000
   56       11.325011     11.335319   0.000000   0.000000
 
  0.5000000E+00  0.6521739E-01  0.0000000E+00  0.8333333E-02
    1      -51.615396    -51.610338   1.000000   1.000000
    2      -51.562221    -51.557424   1.000000   1.000000
    3      -51.562180    -51.557407   1.000000   1.000000
    4      -46.627425    -46.632407   1.000000   1.000000
    5      -46.587871    -46.592679   1.000000   1.000000
    6      -46.587860    -46.592645   1.000000   1.000000
    7      -16.054098    -16.053626   1.000000   1.000000
    8      -16.047097    -16.047980   1.000000   1.000000
    9      -16.036128    -16.035129   1.000000   1.000000
   10      -16.029789    -16.030404   1.000000   1.000000
   11      -15.996743    -15.996285   1.000000   1.000000
   12      -15.995386    -15.995923   1.000000   1.000000
   13      -15.984102    -15.984562   1.000000   1.000000
   14      -15.983712    -15.983071   1.000000   1.000000
   15      -15.974029    -15.974208   1.000000   1.000000
   16      -15.970048    -15.969943   1.000000   1.000000
   17      -11.689285    -11.686271   1.000000   1.000000
   18      -11.572174    -11.575155   1.000000   1.000000
   19      -10.716976    -10.720318   1.000000   1.000000
   20      -10.642179    -10.632467   1.000000   1.000000
   21      -10.559367    -10.569827   1.000000   1.000000
   22      -10.493643    -10.488867   1.000000   1.000000
   23       -3.507427     -3.504505   1.000000   1.000000
   24       -3.411927     -3.414565   1.000000   1.000000
   25       -2.275374     -2.273182   1.000000   1.000000
   26       -2.207165     -2.198857   1.000000   1.000000
   27       -2.095750     -2.096399   1.000000   1.000000
   28       -2.003100     -1.998157   1.000000   1.000000
   29       -1.804599     -1.799853   1.000000   1.000000
   30        1.073653      1.093755   1.000000   1.000000
   31        1.321215      1.320333   1.000000   1.000000
   32        1.741779      1.778462   1.000000   1.000000
   33        2.084549      2.050000   1.000000   1.000000
   34        2.420088      2.343855   1.000000   1.000000
   35        2.566567      2.582250   1.000000   1.000000
   36        2.865768      2.854884   1.000000   1.000000
   37        3.124777      3.180102   1.000000   1.000000
   38        3.708278      3.689145   1.000000   1.000000
   39        4.103045      4.131924   1.000000   1.000000
   40        4.326240      4.298562   1.000000   1.000000
   41        4.461592      4.473501   1.000000   1.000000
   42        4.650490      4.652908   1.000000   1.000000
   43        4.756510      4.759789   1.000000   1.000000
   44        4.973954      4.982544   1.000000   1.000000
   45        5.172799      5.184011   1.000000   1.000000
   46        5.499271      5.498344   1.000000   1.000000
   47        5.738923      5.712048   1.000000   1.000000
   48        8.825038      8.813736   0.000000   0.000000
   49        9.085839      9.081362   0.000000   0.000000
   50        9.223814      9.223969   0.000000   0.000000
   51        9.329488      9.317607   0.000000   0.000000
   52        9.411479      9.435376   0.000000   0.000000
   53        9.907697      9.922847   0.000000   0.000000
   54       10.142565     10.125297   0.000000   0.000000
   55       11.110900     11.086442   0.000000   0.000000
   56       11.350841     11.364643   0.000000   0.000000
 
  0.5000000E+00  0.8695652E-01  0.0000000E+00  0.8333333E-02
    1      -51.615397    -51.610339   1.000000   1.000000
    2      -51.562222    -51.557423   1.000000   1.000000
    3      -51.562180    -51.557408   1.000000   1.000000
    4      -46.627426    -46.632408   1.000000   1.000000
    5      -46.587870    -46.592680   1.000000   1.000000
    6      -46.587861    -46.592645   1.000000   1.000000
    7      -16.056686    -16.056236   1.000000   1.000000
    8      -16.047141    -16.048059   1.000000   1.000000
    9      -16.035726    -16.034616   1.000000   1.000000
   10      -16.027817    -16.028489   1.000000   1.000000
   11      -15.997151    -15.996700   1.000000   1.000000
   12      -15.995312    -15.995892   1.000000   1.000000
   13      -15.984053    -15.984763   1.000000   1.000000
   14      -15.983949    -15.982952   1.000000   1.000000
   15      -15.974249    -15.974472   1.000000   1.000000
   16      -15.968835    -15.968739   1.000000   1.000000
   17      -11.701847    -11.698086   1.000000   1.000000
   18      -11.548985    -11.552934   1.000000   1.000000
   19      -10.721683    -10.727720   1.000000   1.000000
   20      -10.649181    -10.632921   1.000000   1.000000
   21      -10.564529    -10.580275   1.000000   1.000000
   22      -10.490143    -10.483628   1.000000   1.000000
   23       -3.523802     -3.520256   1.000000   1.000000
   24       -3.397663     -3.401520   1.000000   1.000000
   25       -2.282580     -2.281164   1.000000   1.000000
   26       -2.206919     -2.196067   1.000000   1.000000
   27       -2.099046     -2.102699   1.000000   1.000000
   28       -1.992907     -1.987812   1.000000   1.000000
   29       -1.807439     -1.802289   1.000000   1.000000
   30        1.056114      1.087326   1.000000   1.000000
   31        1.348867      1.351477   1.000000   1.000000
   32        1.729829      1.785619   1.000000   1.000000
   33        2.102339      2.047957   1.000000   1.000000
   34        2.469965      2.340873   1.000000   1.000000
   35        2.565894      2.593414   1.000000   1.000000
   36        2.872826      2.855118   1.000000   1.000000
   37        3.126030      3.220013   1.000000   1.000000
   38        3.707101      3.675171   1.000000   1.000000
   39        4.081444      4.126935   1.000000   1.000000
   40        4.305591      4.268031   1.000000   1.000000
   41        4.459958      4.476160   1.000000   1.000000
   42        4.648352      4.652479   1.000000   1.000000
   43        4.751334      4.754698   1.000000   1.000000
   44        4.955248      4.969499   1.000000   1.000000
   45        5.165757      5.181770   1.000000   1.000000
   46        5.498408      5.500472   1.000000   1.000000
   47        5.749331      5.703342   1.000000   1.000000
   48        8.840206      8.822703   0.000000   0.000000
   49        9.088757      9.083518   0.000000   0.000000
   50        9.220114      9.221190   0.000000   0.000000
   51        9.316692      9.306152   0.000000   0.000000
   52        9.410823      9.447983   0.000000   0.000000
   53        9.903354      9.934554   0.000000   0.000000
   54       10.153226     10.119312   0.000000   0.000000
   55       11.076435     11.044142   0.000000   0.000000
   56       11.372689     11.387815   0.000000   0.000000
 
  0.5000000E+00  0.1086957E+00  0.0000000E+00  0.8333333E-02
    1      -51.615396    -51.610338   1.000000   1.000000
    2      -51.562223    -51.557425   1.000000   1.000000
    3      -51.562181    -51.557408   1.000000   1.000000
    4      -46.627426    -46.632407   1.000000   1.000000
    5      -46.587872    -46.592681   1.000000   1.000000
    6      -46.587862    -46.592647   1.000000   1.000000
    7      -16.059452    -16.059037   1.000000   1.000000
    8      -16.047261    -16.048145   1.000000   1.000000
    9      -16.035091    -16.033952   1.000000   1.000000
   10      -16.025901    -16.026604   1.000000   1.000000
   11      -15.997627    -15.997232   1.000000   1.000000
   12      -15.995219    -15.995796   1.000000   1.000000
   13      -15.984352    -15.984989   1.000000   1.000000
   14      -15.983843    -15.982816   1.000000   1.000000
   15      -15.974416    -15.974678   1.000000   1.000000
   16      -15.967476    -15.967391   1.000000   1.000000
   17      -11.712853    -11.708420   1.000000   1.000000
   18      -11.524477    -11.529381   1.000000   1.000000
   19      -10.728071    -10.736785   1.000000   1.000000
   20      -10.657274    -10.634212   1.000000   1.000000
   21      -10.570810    -10.591507   1.000000   1.000000
   22      -10.486274    -10.478559   1.000000   1.000000
   23       -3.541148     -3.537134   1.000000   1.000000
   24       -3.382978     -3.388010   1.000000   1.000000
   25       -2.290690     -2.289943   1.000000   1.000000
   26       -2.207076     -2.193673   1.000000   1.000000
   27       -2.101909     -2.108630   1.000000   1.000000
   28       -1.982081     -1.976931   1.000000   1.000000
   29       -1.810925     -1.805385   1.000000   1.000000
   30        1.039119      1.081387   1.000000   1.000000
   31        1.378637      1.388452   1.000000   1.000000
   32        1.721848      1.794711   1.000000   1.000000
   33        2.120906      2.045670   1.000000   1.000000
   34        2.526431      2.338438   1.000000   1.000000
   35        2.567461      2.607560   1.000000   1.000000
   36        2.881721      2.856996   1.000000   1.000000
   37        3.128195      3.266845   1.000000   1.000000
   38        3.706288      3.659729   1.000000   1.000000
   39        4.057293      4.118929   1.000000   1.000000
   40        4.276385      4.233357   1.000000   1.000000
   41        4.457801      4.477124   1.000000   1.000000
   42        4.643567      4.649190   1.000000   1.000000
   43        4.746765      4.748714   1.000000   1.000000
   44        4.935423      4.956778   1.000000   1.000000
   45        5.156220      5.174397   1.000000   1.000000
   46        5.495031      5.503602   1.000000   1.000000
   47        5.761681      5.693937   1.000000   1.000000
   48        8.858591      8.833245   0.000000   0.000000
   49        9.092648      9.086310   0.000000   0.000000
   50        9.215493      9.214509   0.000000   0.000000
   51        9.298501      9.295854   0.000000   0.000000
   52        9.413111      9.461818   0.000000   0.000000
   53        9.893541      9.948769   0.000000   0.000000
   54       10.169211     10.110524   0.000000   0.000000
   55       11.044923     11.007039   0.000000   0.000000
   56       11.388773     11.403305   0.000000   0.000000
 
  0.5000000E+00  0.1304348E+00  0.0000000E+00  0.8333333E-02
    1      -51.615396    -51.610338   1.000000   1.000000
    2      -51.562223    -51.557423   1.000000   1.000000
    3      -51.562179    -51.557409   1.000000   1.000000
    4      -46.627426    -46.632407   1.000000   1.000000
    5      -46.587869    -46.592681   1.000000   1.000000
    6      -46.587862    -46.592644   1.000000   1.000000
    7      -16.062307    -16.061925   1.000000   1.000000
    8      -16.047406    -16.048223   1.000000   1.000000
    9      -16.034293    -16.033170   1.000000   1.000000
   10      -16.024110    -16.024831   1.000000   1.000000
   11      -15.998141    -15.997812   1.000000   1.000000
   12      -15.995109    -15.995671   1.000000   1.000000
   13      -15.984683    -15.985227   1.000000   1.000000
   14      -15.983700    -15.982678   1.000000   1.000000
   15      -15.974534    -15.974824   1.000000   1.000000
   16      -15.965994    -15.965919   1.000000   1.000000
   17      -11.722192    -11.717190   1.000000   1.000000
   18      -11.498909    -11.504727   1.000000   1.000000
   19      -10.736339    -10.747285   1.000000   1.000000
   20      -10.666016    -10.637022   1.000000   1.000000
   21      -10.577925    -10.602587   1.000000   1.000000
   22      -10.482299    -10.473880   1.000000   1.000000
   23       -3.559386     -3.555056   1.000000   1.000000
   24       -3.367886     -3.374013   1.000000   1.000000
   25       -2.299291     -2.299101   1.000000   1.000000
   26       -2.207620     -2.191926   1.000000   1.000000
   27       -2.104177     -2.113695   1.000000   1.000000
   28       -1.971406     -1.966200   1.000000   1.000000
   29       -1.814887     -1.809056   1.000000   1.000000
   30        1.023677      1.076158   1.000000   1.000000
   31        1.409331      1.430576   1.000000   1.000000
   32        1.719826      1.805585   1.000000   1.000000
   33        2.139596      2.043405   1.000000   1.000000
   34        2.557066      2.337161   1.000000   1.000000
   35        2.600792      2.624595   1.000000   1.000000
   36        2.892287      2.860825   1.000000   1.000000
   37        3.131474      3.318017   1.000000   1.000000
   38        3.706443      3.644697   1.000000   1.000000
   39        4.031876      4.107111   1.000000   1.000000
   40        4.239595      4.195942   1.000000   1.000000
   41        4.454204      4.476028   1.000000   1.000000
   42        4.635097      4.641017   1.000000   1.000000
   43        4.743136      4.743344   1.000000   1.000000
   44        4.915845      4.945533   1.000000   1.000000
   45        5.144831      5.160654   1.000000   1.000000
   46        5.488796      5.507462   1.000000   1.000000
   47        5.774844      5.684938   1.000000   1.000000
   48        8.879304      8.844651   0.000000   0.000000
   49        9.097379      9.089747   0.000000   0.000000
   50        9.210087      9.202047   0.000000   0.000000
   51        9.275864      9.288595   0.000000   0.000000
   52        9.418329      9.476399   0.000000   0.000000
   53        9.877587      9.963489   0.000000   0.000000
   54       10.190271     10.099925   0.000000   0.000000
   55       11.017564     10.977240   0.000000   0.000000
   56       11.398037     11.410035   0.000000   0.000000
 
  0.5000000E+00  0.1521739E+00  0.0000000E+00  0.8333333E-02
    1      -51.615396    -51.610339   1.000000   1.000000
    2      -51.562223    -51.557422   1.000000   1.000000
    3      -51.562178    -51.557408   1.000000   1.000000
    4      -46.627426    -46.632407   1.000000   1.000000
    5      -46.587868    -46.592681   1.000000   1.000000
    6      -46.587862    -46.592643   1.000000   1.000000
    7      -16.065197    -16.064846   1.000000   1.000000
    8      -16.047551    -16.048286   1.000000   1.000000
    9      -16.033375    -16.032289   1.000000   1.000000
   10      -16.022493    -16.023227   1.000000   1.000000
   11      -15.998668    -15.998408   1.000000   1.000000
   12      -15.994986    -15.995524   1.000000   1.000000
   13      -15.985011    -15.985469   1.000000   1.000000
   14      -15.983562    -15.982558   1.000000   1.000000
   15      -15.974599    -15.974905   1.000000   1.000000
   16      -15.964425    -15.964360   1.000000   1.000000
   17      -11.729851    -11.724390   1.000000   1.000000
   18      -11.472471    -11.479136   1.000000   1.000000
   19      -10.746645    -10.759097   1.000000   1.000000
   20      -10.675122    -10.642456   1.000000   1.000000
   21      -10.585596    -10.612216   1.000000   1.000000
   22      -10.478445    -10.469746   1.000000   1.000000
   23       -3.578453     -3.573954   1.000000   1.000000
   24       -3.352397     -3.359494   1.000000   1.000000
   25       -2.308063     -2.308334   1.000000   1.000000
   26       -2.208438     -2.190938   1.000000   1.000000
   27       -2.105833     -2.117571   1.000000   1.000000
   28       -1.961610     -1.956243   1.000000   1.000000
   29       -1.819063     -1.813134   1.000000   1.000000
   30        1.010356      1.071550   1.000000   1.000000
   31        1.440192      1.477417   1.000000   1.000000
   32        1.724983      1.817994   1.000000   1.000000
   33        2.157867      2.041518   1.000000   1.000000
   34        2.559647      2.337483   1.000000   1.000000
   35        2.665504      2.644448   1.000000   1.000000
   36        2.904299      2.866700   1.000000   1.000000
   37        3.135873      3.370016   1.000000   1.000000
   38        3.708357      3.632880   1.000000   1.000000
   39        4.006121      4.090398   1.000000   1.000000
   40        4.196972      4.157523   1.000000   1.000000
   41        4.448369      4.472124   1.000000   1.000000
   42        4.622381      4.627036   1.000000   1.000000
   43        4.739914      4.739989   1.000000   1.000000
   44        4.897510      4.936257   1.000000   1.000000
   45        5.132520      5.140153   1.000000   1.000000
   46        5.479828      5.511276   1.000000   1.000000
   47        5.787559      5.677473   1.000000   1.000000
   48        8.901165      8.856052   0.000000   0.000000
   49        9.102458      9.093804   0.000000   0.000000
   50        9.204077      9.183478   0.000000   0.000000
   51        9.250407      9.284796   0.000000   0.000000
   52        9.426115      9.491333   0.000000   0.000000
   53        9.855947      9.973518   0.000000   0.000000
   54       10.215200     10.091998   0.000000   0.000000
   55       10.994941     10.955721   0.000000   0.000000
   56       11.401858     11.408465   0.000000   0.000000
 
  0.5000000E+00  0.1739130E+00  0.0000000E+00  0.8333333E-02
    1      -51.615397    -51.610339   1.000000   1.000000
    2      -51.562222    -51.557422   1.000000   1.000000
    3      -51.562178    -51.557407   1.000000   1.000000
    4      -46.627427    -46.632407   1.000000   1.000000
    5      -46.587867    -46.592680   1.000000   1.000000
    6      -46.587861    -46.592642   1.000000   1.000000
    7      -16.068073    -16.067752   1.000000   1.000000
    8      -16.047682    -16.048332   1.000000   1.000000
    9      -16.032371    -16.031332   1.000000   1.000000
   10      -16.021083    -16.021821   1.000000   1.000000
   11      -15.999180    -15.998984   1.000000   1.000000
   12      -15.994851    -15.995361   1.000000   1.000000
   13      -15.985328    -15.985710   1.000000   1.000000
   14      -15.983450    -15.982480   1.000000   1.000000
   15      -15.974618    -15.974926   1.000000   1.000000
   16      -15.962791    -15.962734   1.000000   1.000000
   17      -11.735834    -11.730032   1.000000   1.000000
   18      -11.445374    -11.452814   1.000000   1.000000
   19      -10.758986    -10.772055   1.000000   1.000000
   20      -10.684432    -10.651476   1.000000   1.000000
   21      -10.593535    -10.619241   1.000000   1.000000
   22      -10.474846    -10.466211   1.000000   1.000000
   23       -3.598244     -3.593716   1.000000   1.000000
   24       -3.336544     -3.344440   1.000000   1.000000
   25       -2.316738     -2.317399   1.000000   1.000000
   26       -2.209366     -2.190694   1.000000   1.000000
   27       -2.106945     -2.120107   1.000000   1.000000
   28       -1.953428     -1.947702   1.000000   1.000000
   29       -1.823071     -1.817322   1.000000   1.000000
   30        0.999462      1.067331   1.000000   1.000000
   31        1.470869      1.528674   1.000000   1.000000
   32        1.737850      1.831567   1.000000   1.000000
   33        2.175067      2.040470   1.000000   1.000000
   34        2.561816      2.339641   1.000000   1.000000
   35        2.731777      2.667072   1.000000   1.000000
   36        2.917475      2.874575   1.000000   1.000000
   37        3.141106      3.417158   1.000000   1.000000
   38        3.712927      3.629100   1.000000   1.000000
   39        3.980593      4.066700   1.000000   1.000000
   40        4.150688      4.121013   1.000000   1.000000
   41        4.439831      4.463965   1.000000   1.000000
   42        4.605552      4.608782   1.000000   1.000000
   43        4.735743      4.738786   1.000000   1.000000
   44        4.881217      4.928912   1.000000   1.000000
   45        5.120280      5.113351   1.000000   1.000000
   46        5.468544      5.513860   1.000000   1.000000
   47        5.798663      5.672575   1.000000   1.000000
   48        8.922519      8.866351   0.000000   0.000000
   49        9.106654      9.098242   0.000000   0.000000
   50        9.197769      9.160431   0.000000   0.000000
   51        9.224550      9.283440   0.000000   0.000000
   52        9.436187      9.506333   0.000000   0.000000
   53        9.829782      9.969822   0.000000   0.000000
   54       10.242357     10.095626   0.000000   0.000000
   55       10.976920     10.942073   0.000000   0.000000
   56       11.399836     11.400890   0.000000   0.000000
 